 Entering Gaussian System, Link 0=g16
 Input=freq.com
 Output=freq.log
 Initial command:
 /opt/gaussian/g16/l1.exe "/mnt/scratch/hwang/Gau-914856.inp" -scrdir="/mnt/scratch/hwang/"
 Entering Link 1 = /opt/gaussian/g16/l1.exe PID=    914865.
  
 Copyright (c) 1988-2019, Gaussian, Inc.  All Rights Reserved.
  
 This is part of the Gaussian(R) 16 program.  It is based on
 the Gaussian(R) 09 system (copyright 2009, Gaussian, Inc.),
 the Gaussian(R) 03 system (copyright 2003, Gaussian, Inc.),
 the Gaussian(R) 98 system (copyright 1998, Gaussian, Inc.),
 the Gaussian(R) 94 system (copyright 1995, Gaussian, Inc.),
 the Gaussian 92(TM) system (copyright 1992, Gaussian, Inc.),
 the Gaussian 90(TM) system (copyright 1990, Gaussian, Inc.),
 the Gaussian 88(TM) system (copyright 1988, Gaussian, Inc.),
 the Gaussian 86(TM) system (copyright 1986, Carnegie Mellon
 University), and the Gaussian 82(TM) system (copyright 1983,
 Carnegie Mellon University). Gaussian is a federally registered
 trademark of Gaussian, Inc.
  
 This software contains proprietary and confidential information,
 including trade secrets, belonging to Gaussian, Inc.
  
 This software is provided under written license and may be
 used, copied, transmitted, or stored only in accord with that
 written license.
  
 The following legend is applicable only to US Government
 contracts under FAR:
  
                    RESTRICTED RIGHTS LEGEND
  
 Use, reproduction and disclosure by the US Government is
 subject to restrictions as set forth in subparagraphs (a)
 and (c) of the Commercial Computer Software - Restricted
 Rights clause in FAR 52.227-19.
  
 Gaussian, Inc.
 340 Quinnipiac St., Bldg. 40, Wallingford CT 06492
  
  
 ---------------------------------------------------------------
 Warning -- This program may not be used in any manner that
 competes with the business of Gaussian, Inc. or will provide
 assistance to any competitor of Gaussian, Inc.  The licensee
 of this program is prohibited from giving any competitor of
 Gaussian, Inc. access to this program.  By using this program,
 the user acknowledges that Gaussian, Inc. is engaged in the
 business of creating and licensing software in the field of
 computational chemistry and represents and warrants to the
 licensee that it is not a competitor of Gaussian, Inc. and that
 it will not use this program in any manner prohibited above.
 ---------------------------------------------------------------
  

 Cite this work as:
 Gaussian 16, Revision C.01,
 M. J. Frisch, G. W. Trucks, H. B. Schlegel, G. E. Scuseria, 
 M. A. Robb, J. R. Cheeseman, G. Scalmani, V. Barone, 
 G. A. Petersson, H. Nakatsuji, X. Li, M. Caricato, A. V. Marenich, 
 J. Bloino, B. G. Janesko, R. Gomperts, B. Mennucci, H. P. Hratchian, 
 J. V. Ortiz, A. F. Izmaylov, J. L. Sonnenberg, D. Williams-Young, 
 F. Ding, F. Lipparini, F. Egidi, J. Goings, B. Peng, A. Petrone, 
 T. Henderson, D. Ranasinghe, V. G. Zakrzewski, J. Gao, N. Rega, 
 G. Zheng, W. Liang, M. Hada, M. Ehara, K. Toyota, R. Fukuda, 
 J. Hasegawa, M. Ishida, T. Nakajima, Y. Honda, O. Kitao, H. Nakai, 
 T. Vreven, K. Throssell, J. A. Montgomery, Jr., J. E. Peralta, 
 F. Ogliaro, M. J. Bearpark, J. J. Heyd, E. N. Brothers, K. N. Kudin, 
 V. N. Staroverov, T. A. Keith, R. Kobayashi, J. Normand, 
 K. Raghavachari, A. P. Rendell, J. C. Burant, S. S. Iyengar, 
 J. Tomasi, M. Cossi, J. M. Millam, M. Klene, C. Adamo, R. Cammi, 
 J. W. Ochterski, R. L. Martin, K. Morokuma, O. Farkas, 
 J. B. Foresman, and D. J. Fox, Gaussian, Inc., Wallingford CT, 2019.
 
 ******************************************
 Gaussian 16:  ES64L-G16RevC.01  3-Jul-2019
                26-Oct-2023 
 ******************************************
 %mem=6GB
 %chk=freq.chk
 %save
 ---------------------------------------------------------------
 #P blyp/4-21G iop(7/33=1) freq EmpiricalDispersion(GD3) scf(qc)
 ---------------------------------------------------------------
 1/10=4,30=1,38=1/1,3;
 2/12=2,17=6,18=5,40=1/2;
 3/5=5,6=4,11=2,25=1,30=1,71=2,74=402,124=31,140=1/1,2,3;
 4//1;
 5/5=2,8=3,38=5,98=1/8;
 8/6=4,10=90,11=11/1;
 11/6=1,8=1,9=11,15=111,16=1/1,2,10;
 10/6=1/2;
 6/7=2,8=2,9=2,10=2,28=1/1;
 7/8=1,10=1,25=1,33=1/1,2,3,16;
 1/10=4,30=1/3;
 99//99;
 Leave Link    1 at Thu Oct 26 08:06:58 2023, MaxMem=   805306368 cpu:               0.0 elap:               0.0
 (Enter /opt/gaussian/g16/l101.exe)
 ------------------------------
 Gaussian input prepared by ASE
 ------------------------------
 Symbolic Z-matrix:
 Charge =  0 Multiplicity = 1
 C                     4.99881  -0.86854   0. 
 N                     3.90743  -1.64214   0. 
 C                     2.82209  -0.72709  0. 
 C                     3.28738   0.61342   0. 
 N                     4.67999   0.51522   0.00001 
 H                     5.32034   1.31099   0.00001 
 N                     2.56223   1.76838   0. 
 C                     1.22231   1.53965   0. 
 N                     0.66349   0.25882  -0.00001 
 C                     1.40704  -0.96388  -0.00001 
 O                     0.80217  -2.09024  -0.00002 
 N                     0.36456   2.59655   0.00001 
 H                     6.02512  -1.21696   0.00001 
 H                    -0.39538   0.15451  0. 
 H                     0.79168   3.52358   0.00002 
 H                    -0.67342   2.4929    0.00002 
 C                    -4.16165  -1.47379  0. 
 C                    -4.93204  -0.34243  -0.00002 
 N                    -4.34225   0.90586  -0.00001 
 C                    -2.90834   1.08047  0. 
 O                    -2.45108   2.26249   0. 
 N                    -2.14313  -0.06712   0. 
 C                    -2.71411  -1.31197   0. 
 N                    -1.88833  -2.37544   0.00002 
 H                    -4.89753   1.76649  -0.00001 
 H                    -4.61503  -2.46197   0.00001 
 H                    -6.02121  -0.37269  -0.00001 
 H                    -0.82181  -2.24987   0.00001 
 H                    -2.27836  -3.321     0.00003 
 
 ITRead=  0  0  0  0  0  0  0  0  0  0  0  0  0  0  0  0  0  0  0  0
 ITRead=  0  0  0  0  0  0  0  0  0
 MicOpt= -1 -1 -1 -1 -1 -1 -1 -1 -1 -1 -1 -1 -1 -1 -1 -1 -1 -1 -1 -1
 MicOpt= -1 -1 -1 -1 -1 -1 -1 -1 -1
 NAtoms=     29 NQM=       29 NQMF=       0 NMMI=      0 NMMIF=      0
                NMic=       0 NMicF=      0.
                    Isotopes and Nuclear Properties:
 (Nuclear quadrupole moments (NQMom) in fm**2, nuclear magnetic moments (NMagM)
  in nuclear magnetons)

  Atom         1           2           3           4           5           6           7           8           9          10
 IAtWgt=          12          14          12          12          14           1          14          12          14          12
 AtmWgt=  12.0000000  14.0030740  12.0000000  12.0000000  14.0030740   1.0078250  14.0030740  12.0000000  14.0030740  12.0000000
 NucSpn=           0           2           0           0           2           1           2           0           2           0
 AtZEff=  -0.0000000  -0.0000000  -0.0000000  -0.0000000  -0.0000000  -0.0000000  -0.0000000  -0.0000000  -0.0000000  -0.0000000
 NQMom=    0.0000000   2.0440000   0.0000000   0.0000000   2.0440000   0.0000000   2.0440000   0.0000000   2.0440000   0.0000000
 NMagM=    0.0000000   0.4037610   0.0000000   0.0000000   0.4037610   2.7928460   0.4037610   0.0000000   0.4037610   0.0000000
 AtZNuc=   6.0000000   7.0000000   6.0000000   6.0000000   7.0000000   1.0000000   7.0000000   6.0000000   7.0000000   6.0000000

  Atom        11          12          13          14          15          16          17          18          19          20
 IAtWgt=          16          14           1           1           1           1          12          12          14          12
 AtmWgt=  15.9949146  14.0030740   1.0078250   1.0078250   1.0078250   1.0078250  12.0000000  12.0000000  14.0030740  12.0000000
 NucSpn=           0           2           1           1           1           1           0           0           2           0
 AtZEff=  -0.0000000  -0.0000000  -0.0000000  -0.0000000  -0.0000000  -0.0000000  -0.0000000  -0.0000000  -0.0000000  -0.0000000
 NQMom=    0.0000000   2.0440000   0.0000000   0.0000000   0.0000000   0.0000000   0.0000000   0.0000000   2.0440000   0.0000000
 NMagM=    0.0000000   0.4037610   2.7928460   2.7928460   2.7928460   2.7928460   0.0000000   0.0000000   0.4037610   0.0000000
 AtZNuc=   8.0000000   7.0000000   1.0000000   1.0000000   1.0000000   1.0000000   6.0000000   6.0000000   7.0000000   6.0000000

  Atom        21          22          23          24          25          26          27          28          29
 IAtWgt=          16          14          12          14           1           1           1           1           1
 AtmWgt=  15.9949146  14.0030740  12.0000000  14.0030740   1.0078250   1.0078250   1.0078250   1.0078250   1.0078250
 NucSpn=           0           2           0           2           1           1           1           1           1
 AtZEff=  -0.0000000  -0.0000000  -0.0000000  -0.0000000  -0.0000000  -0.0000000  -0.0000000  -0.0000000  -0.0000000
 NQMom=    0.0000000   2.0440000   0.0000000   2.0440000   0.0000000   0.0000000   0.0000000   0.0000000   0.0000000
 NMagM=    0.0000000   0.4037610   0.0000000   0.4037610   2.7928460   2.7928460   2.7928460   2.7928460   2.7928460
 AtZNuc=   8.0000000   7.0000000   6.0000000   7.0000000   1.0000000   1.0000000   1.0000000   1.0000000   1.0000000
 Leave Link  101 at Thu Oct 26 08:06:58 2023, MaxMem=   805306368 cpu:               0.1 elap:               0.1
 (Enter /opt/gaussian/g16/l103.exe)

 GradGradGradGradGradGradGradGradGradGradGradGradGradGradGradGradGradGrad
 Berny optimization.
 Initialization pass.
 Trust Radius=3.00D-01 FncErr=1.00D-07 GrdErr=1.00D-07 EigMax=2.50D+02 EigMin=1.00D-04
 Number of steps in this run=      2 maximum allowed number of steps=      2.
 GradGradGradGradGradGradGradGradGradGradGradGradGradGradGradGradGradGrad

 Leave Link  103 at Thu Oct 26 08:06:58 2023, MaxMem=   805306368 cpu:               0.0 elap:               0.0
 (Enter /opt/gaussian/g16/l202.exe)
                          Input orientation:                          
 ---------------------------------------------------------------------
 Center     Atomic      Atomic             Coordinates (Angstroms)
 Number     Number       Type             X           Y           Z
 ---------------------------------------------------------------------
      1          6           0        4.998808   -0.868539    0.000004
      2          7           0        3.907434   -1.642136    0.000001
      3          6           0        2.822094   -0.727094   -0.000002
      4          6           0        3.287380    0.613415    0.000001
      5          7           0        4.679995    0.515221    0.000006
      6          1           0        5.320344    1.310986    0.000007
      7          7           0        2.562227    1.768382    0.000003
      8          6           0        1.222307    1.539651    0.000000
      9          7           0        0.663489    0.258817   -0.000006
     10          6           0        1.407040   -0.963882   -0.000011
     11          8           0        0.802170   -2.090244   -0.000017
     12          7           0        0.364561    2.596554    0.000012
     13          1           0        6.025121   -1.216961    0.000009
     14          1           0       -0.395384    0.154511   -0.000002
     15          1           0        0.791681    3.523583    0.000023
     16          1           0       -0.673415    2.492897    0.000016
     17          6           0       -4.161649   -1.473790   -0.000003
     18          6           0       -4.932043   -0.342425   -0.000015
     19          7           0       -4.342248    0.905859   -0.000010
     20          6           0       -2.908344    1.080472   -0.000003
     21          8           0       -2.451083    2.262492    0.000004
     22          7           0       -2.143133   -0.067120    0.000001
     23          6           0       -2.714109   -1.311965    0.000001
     24          7           0       -1.888327   -2.375438    0.000019
     25          1           0       -4.897525    1.766486   -0.000011
     26          1           0       -4.615026   -2.461966    0.000011
     27          1           0       -6.021205   -0.372687   -0.000014
     28          1           0       -0.821809   -2.249870    0.000009
     29          1           0       -2.278362   -3.320999    0.000027
 ---------------------------------------------------------------------
                    Distance matrix (angstroms):
                    1          2          3          4          5
     1  C    0.000000
     2  N    1.337740   0.000000
     3  C    2.181305   1.419600   0.000000
     4  C    2.263885   2.339226   1.418963   0.000000
     5  N    1.420012   2.291515   2.234982   1.396073   0.000000
     6  H    2.203115   3.273720   3.224131   2.149313   1.021415
     7  N    3.590304   3.666226   2.508970   1.363743   2.460763
     8  C    4.478989   4.163373   2.774428   2.263281   3.606253
     9  N    4.479500   3.759894   2.373098   2.647743   4.024682
    10  C    3.593033   2.590753   1.434729   2.454291   3.591654
    11  O    4.370850   3.137430   2.436857   3.672335   4.671828
    12  N    5.786460   5.524350   4.133534   3.532097   4.791129
    13  H    1.083843   2.159947   3.240270   3.293251   2.193130
    14  H    5.490350   4.662851   3.336074   3.711246   5.088181
    15  H    6.081994   6.032625   4.710715   3.833744   4.916221
    16  H    6.593434   6.171116   4.752570   4.384102   5.707031
    17  C    9.180430   8.070839   7.023548   7.735920   9.062606
    18  C    9.944777   8.934517   7.763673   8.274814   9.650224
    19  N    9.508092   8.634207   7.348084   7.635231   9.030696
    20  C    8.143813   7.339443   6.008761   6.213303   7.609362
    21  O    8.081103   7.461693   6.061685   5.970713   7.342018
    22  N    7.186765   6.252203   5.008897   5.472988   6.847934
    23  C    7.725653   6.629770   5.567012   6.302774   7.616520
    24  N    7.050062   5.841967   4.990501   5.976720   7.176264
    25  H   10.241131   9.441716   8.112365   8.265727   9.658911
    26  H    9.744989   8.561802   7.636788   8.479740   9.760177
    27  H   11.031163  10.009464   8.850398   9.360670  10.737973
    28  H    5.982279   4.768132   3.949288   5.008377   6.157562
    29  H    7.679307   6.409575   5.722149   6.815944   7.945773
                    6          7          8          9         10
     6  H    0.000000
     7  N    2.795786   0.000000
     8  C    4.104412   1.359303   0.000000
     9  N    4.774239   2.425694   1.397431   0.000000
    10  C    4.526475   2.966433   2.510339   1.431035   0.000000
    11  O    5.655286   4.241084   3.654128   2.353151   1.278499
    12  N    5.119812   2.348532   1.361166   2.356772   3.709915
    13  H    2.624353   4.572079   5.537683   5.561027   4.625010
    14  H    5.831550   3.369279   2.129680   1.063998   2.121211
    15  H    5.040275   2.493103   2.030129   3.267282   4.529460
    16  H    6.109178   3.315766   2.121895   2.603541   4.034553
    17  C    9.882468   7.464730   6.169912   5.126781   5.591986
    18  C   10.384855   7.785858   6.435700   5.627741   6.369473
    19  N    9.671081   6.958141   5.600533   5.047382   6.045680
    20  C    8.231916   5.513653   4.156095   3.665120   4.775136
    21  O    7.829460   5.037601   3.743834   3.703414   5.029374
    22  N    7.589642   5.050691   3.729330   2.825484   3.661681
    23  C    8.451764   6.109686   4.860770   3.724986   4.135823
    24  N    8.096583   6.081009   5.000397   3.667569   3.584959
    25  H   10.228017   7.459752   6.124034   5.761766   6.870404
    26  H   10.627641   8.331195   7.077245   5.938466   6.205605
    27  H   11.465840   8.846439   7.491696   6.714457   7.451734
    28  H    7.099700   5.253385   4.305680   2.915411   2.573234
    29  H    8.899192   7.023753   5.990042   4.633527   4.374722
                   11         12         13         14         15
    11  O    0.000000
    12  N    4.707184   0.000000
    13  H    5.295455   6.825309   0.000000
    14  H    2.544221   2.557556   6.565350   0.000000
    15  H    5.613837   1.020693   7.061278   3.572082   0.000000
    16  H    4.814824   1.043139   7.657247   2.354857   1.791318
    17  C    5.001951   6.087222  10.190007   4.103184   7.036278
    18  C    5.994670   6.057360  10.992009   4.563795   6.907028
    19  N    5.953291   5.001250  10.582472   4.017743   5.762786
    20  C    4.880712   3.606995   9.224153   2.678128   4.433844
    21  O    5.434148   2.835392   9.162567   2.944398   3.479349
    22  N    3.573212   3.658372   8.248788   1.761745   4.637487
    23  C    3.601380   4.975413   8.739746   2.743545   5.972695
    24  N    2.705570   5.458590   7.997795   2.937605   6.479266
    25  H    6.881925   5.327153  11.322771   4.782022   5.954364
    26  H    5.429935   7.098233  10.712738   4.965011   8.065933
    27  H    7.036224   7.042329  12.075875   5.650469   7.848333
    28  H    1.631805   4.989519   6.924403   2.441902   5.994673
    29  H    3.317293   6.480932   8.565910   3.952819   7.501564
                   16         17         18         19         20
    16  H    0.000000
    17  C    5.282271   0.000000
    18  C    5.116147   1.368756   0.000000
    19  N    3.997377   2.386492   1.380605   0.000000
    20  C    2.643833   2.845176   2.473862   1.444497   0.000000
    21  O    1.792537   4.109238   3.597326   2.327436   1.267383
    22  N    2.951908   2.460310   2.802465   2.404744   1.379317
    23  C    4.317570   1.456557   2.420587   2.751287   2.400309
    24  N    5.017639   2.445601   3.660239   4.097394   3.603297
    25  H    4.286115   3.322785   2.109193   1.024213   2.104152
    26  H    6.331427   1.087218   2.143118   3.378854   3.932128
    27  H    6.067160   2.161105   1.089582   2.110350   3.435342
    28  H    4.745088   3.428824   4.531266   4.727802   3.929988
    29  H    6.031355   2.637982   3.989226   4.703823   4.446327
                   21         22         23         24         25
    21  O    0.000000
    22  N    2.349878   0.000000
    23  C    3.584121   1.369545   0.000000
    24  N    4.671947   2.322339   1.346436   0.000000
    25  H    2.496217   3.308895   3.774144   5.119649   0.000000
    26  H    5.196456   3.441735   2.221708   2.728072   4.237878
    27  H    4.437335   3.890092   3.437896   4.592569   2.416344
    28  H    4.797494   2.551528   2.111981   1.073885   5.722113
    29  H    5.586162   3.256688   2.055746   1.022845   5.722108
                   26         27         28         29
    26  H    0.000000
    27  H    2.518417   0.000000
    28  H    3.799142   5.527887   0.000000
    29  H    2.489565   4.764600   1.808000   0.000000
 Stoichiometry    C9H10N8O2
 Framework group  C1[X(C9H10N8O2)]
 Deg. of freedom    81
 Full point group                 C1      NOp   1
 Largest Abelian subgroup         C1      NOp   1
 Largest concise Abelian subgroup C1      NOp   1
                         Standard orientation:                         
 ---------------------------------------------------------------------
 Center     Atomic      Atomic             Coordinates (Angstroms)
 Number     Number       Type             X           Y           Z
 ---------------------------------------------------------------------
      1          6           0        4.998808   -0.868539    0.000004
      2          7           0        3.907434   -1.642136    0.000001
      3          6           0        2.822094   -0.727094   -0.000002
      4          6           0        3.287380    0.613415    0.000001
      5          7           0        4.679995    0.515221    0.000006
      6          1           0        5.320344    1.310986    0.000007
      7          7           0        2.562227    1.768382    0.000003
      8          6           0        1.222307    1.539651    0.000000
      9          7           0        0.663489    0.258817   -0.000006
     10          6           0        1.407040   -0.963882   -0.000011
     11          8           0        0.802170   -2.090244   -0.000017
     12          7           0        0.364561    2.596554    0.000012
     13          1           0        6.025121   -1.216961    0.000009
     14          1           0       -0.395384    0.154511   -0.000002
     15          1           0        0.791681    3.523583    0.000023
     16          1           0       -0.673415    2.492897    0.000016
     17          6           0       -4.161649   -1.473790   -0.000003
     18          6           0       -4.932043   -0.342425   -0.000015
     19          7           0       -4.342248    0.905859   -0.000010
     20          6           0       -2.908344    1.080472   -0.000003
     21          8           0       -2.451083    2.262492    0.000004
     22          7           0       -2.143133   -0.067120    0.000001
     23          6           0       -2.714109   -1.311965    0.000001
     24          7           0       -1.888327   -2.375438    0.000019
     25          1           0       -4.897525    1.766486   -0.000011
     26          1           0       -4.615026   -2.461966    0.000011
     27          1           0       -6.021205   -0.372687   -0.000014
     28          1           0       -0.821809   -2.249870    0.000009
     29          1           0       -2.278362   -3.320999    0.000027
 ---------------------------------------------------------------------
 Rotational constants (GHZ):           0.8535276           0.2008744           0.1626058
 Leave Link  202 at Thu Oct 26 08:06:58 2023, MaxMem=   805306368 cpu:               0.0 elap:               0.0
 (Enter /opt/gaussian/g16/l301.exe)
 Standard basis: 4-21G (6D, 7F)
 Ernie: Thresh=  0.10000D-02 Tol=  0.10000D-05 Strict=F.
 There are   191 symmetry adapted cartesian basis functions of A   symmetry.
 There are   191 symmetry adapted basis functions of A   symmetry.
   191 basis functions,   334 primitive gaussians,   191 cartesian basis functions
    68 alpha electrons       68 beta electrons
       nuclear repulsion energy      1376.5485861759 Hartrees.
 IExCor=  402 DFT=T Ex=B Corr=LYP ExCW=0 ScaHFX=  0.000000
 ScaDFX=  1.000000  1.000000  1.000000  1.000000 ScalE2=  1.000000  1.000000
 IRadAn=      5 IRanWt=     -1 IRanGd=            0 ICorTp=0 IEmpDi=131
 NAtoms=   29 NActive=   29 NUniq=   29 SFac= 1.00D+00 NAtFMM=   60 NAOKFM=F Big=F
 Integral buffers will be    131072 words long.
 Raffenetti 2 integral format.
 Two-electron integral symmetry is turned on.
 R6Disp:  Grimme-D3 Dispersion energy=       -0.0321927797 Hartrees.
 Nuclear repulsion after empirical dispersion term =     1376.5163933962 Hartrees.
 Leave Link  301 at Thu Oct 26 08:06:58 2023, MaxMem=   805306368 cpu:               0.0 elap:               0.0
 (Enter /opt/gaussian/g16/l302.exe)
 NPDir=0 NMtPBC=     1 NCelOv=     1 NCel=       1 NClECP=     1 NCelD=      1
         NCelK=      1 NCelE2=     1 NClLst=     1 CellRange=     0.0.
 One-electron integrals computed using PRISM.
 One-electron integral symmetry used in STVInt
 NBasis=   191 RedAO= T EigKep=  4.15D-03  NBF=   191
 NBsUse=   191 1.00D-06 EigRej= -1.00D+00 NBFU=   191
 Precomputing XC quadrature grid using
 IXCGrd= 4 IRadAn=           5 IRanWt=          -1 IRanGd=           0 AccXCQ= 0.00D+00.
 Generated NRdTot=       0 NPtTot=           0 NUsed=           0 NTot=          32
 NSgBfM=   187   187   187   187   187 MxSgAt=    29 MxSgA2=    29.
 Leave Link  302 at Thu Oct 26 08:06:59 2023, MaxMem=   805306368 cpu:               0.7 elap:               0.7
 (Enter /opt/gaussian/g16/l303.exe)
 DipDrv:  MaxL=1.
 Leave Link  303 at Thu Oct 26 08:06:59 2023, MaxMem=   805306368 cpu:               0.0 elap:               0.0
 (Enter /opt/gaussian/g16/l401.exe)
 ExpMin= 1.83D-01 ExpMax= 9.38D+02 ExpMxC= 9.38D+02 IAcc=3 IRadAn=         5 AccDes= 0.00D+00
 Harris functional with IExCor=  402 and IRadAn=       5 diagonalized for initial guess.
 HarFok:  IExCor=  402 AccDes= 0.00D+00 IRadAn=         5 IDoV= 1 UseB2=F ITyADJ=14
 ICtDFT=  3500011 ScaDFX=  1.000000  1.000000  1.000000  1.000000
 FoFCou: FMM=F IPFlag=           0 FMFlag=      100000 FMFlg1=           0
         NFxFlg=           0 DoJE=T BraDBF=F KetDBF=T FulRan=T
         wScrn=  0.000000 ICntrl=       500 IOpCl=  0 I1Cent=   200000004 NGrid=           0
         NMat0=    1 NMatS0=      1 NMatT0=    0 NMatD0=    1 NMtDS0=    0 NMtDT0=    0
 Petite list used in FoFCou.
 Harris En= -935.428087362565    
 JPrj=0 DoOrth=F DoCkMO=F.
 Leave Link  401 at Thu Oct 26 08:07:03 2023, MaxMem=   805306368 cpu:               4.1 elap:               4.1
 (Enter /opt/gaussian/g16/l508.exe)
 Keep J ints in memory in canonical form, NReq=171655065.
 FoFCou: FMM=F IPFlag=           0 FMFlag=           0 FMFlg1=           0
         NFxFlg=           0 DoJE=F BraDBF=F KetDBF=F FulRan=T
         wScrn=  0.000000 ICntrl=       600 IOpCl=  0 I1Cent=           0 NGrid=           0
         NMat0=    1 NMatS0=  18336 NMatT0=    0 NMatD0=    1 NMtDS0=    0 NMtDT0=    0
 Symmetry not used in FoFCou.
 Two-electron integral symmetry not used.
 Tight linear equation convergence will be used.
 RB-LYP wavefunction.
 Quadratic Convergence SCF Method.
 Line search only if initial step raises energy.
 Iteration   1 EE= -934.945852230514                                    Grad=8.932D-01 Max rot=    5.7921 deg.
 Gradient too large for Newton-Raphson -- use scaled steepest descent instead.
 Alpha Gap=     0.035 HL deriv= 2.82D-03
     ILin= 1 X=0.000D+00 Y=-9.349458522305D+02 DE= 0.00D+00 F= -2.26D+00
     ILin= 2 X=3.000D-01 Y=-9.352579105924D+02 DE=-3.12D-01 F=  2.39D-01 OKLS=T
     Accept linear search using points  1 and  2.
     An  expanding polynomial of degree  2 produced  0.1432
 Iteration   2 EE= -935.188485256989     Delta-E=       -0.242633026474 Grad=4.832D-01 Max rot=    2.7302 deg.
 Gradient too large for Newton-Raphson -- use scaled steepest descent instead.
 Alpha Gap=     0.066 HL deriv= 1.49D-03
     ILin= 1 X=0.000D+00 Y=-9.351884852570D+02 DE= 0.00D+00 F= -5.52D-01
     ILin= 2 X=3.000D-01 Y=-9.352808755040D+02 DE=-9.24D-02 F= -6.14D-02 OKLS=F
     ILin= 3 X=4.000D-01 Y=-9.352787035326D+02 DE=-9.02D-02 F=  1.05D-01
     An  expanding polynomial of degree  3 produced  0.3368
 Iteration   3 EE= -935.282011145695     Delta-E=       -0.093525888707 Grad=1.465D-01 Max rot=    0.6109 deg.
 Gradient too large for Newton-Raphson -- use scaled steepest descent instead.
 Alpha Gap=     0.084 HL deriv= 2.43D-03
     ILin= 1 X=0.000D+00 Y=-9.352820111457D+02 DE= 0.00D+00 F= -4.44D-02
     ILin= 2 X=2.000D-01 Y=-9.352884081878D+02 DE=-6.40D-03 F= -1.95D-02 OKLS=F
     ILin= 3 X=4.000D-01 Y=-9.352898374964D+02 DE=-7.83D-03 F=  5.23D-03
     Accept linear search using points  2 and  3.
     An  expanding polynomial of degree  3 produced  0.2870
 Iteration   4 EE= -935.289639151839     Delta-E=       -0.007628006144 Grad=6.970D-02 Max rot=    0.2798 deg.
 Gradient too large for Newton-Raphson -- use scaled steepest descent instead.
 Alpha Gap=     0.081 HL deriv= 4.22D-06
     ILin= 1 X=0.000D+00 Y=-9.352896391518D+02 DE= 0.00D+00 F= -8.39D-03
     ILin= 2 X=3.000D-01 Y=-9.352915102249D+02 DE=-1.87D-03 F= -4.08D-03 OKLS=F
     ILin= 3 X=7.000D-01 Y=-9.352919864685D+02 DE=-2.35D-03 F=  1.70D-03
     Accept linear search using points  2 and  3.
     An  expanding polynomial of degree  3 produced  0.5089
 Iteration   5 EE= -935.292047152236     Delta-E=       -0.002408000397 Grad=3.384D-02 Max rot=    0.1784 deg.
 Gradient too large for Newton-Raphson -- use scaled steepest descent instead.
 Alpha Gap=     0.083 HL deriv= 1.27D-03
     ILin= 1 X=0.000D+00 Y=-9.352920471522D+02 DE= 0.00D+00 F= -2.23D-03
     ILin= 2 X=4.000D-01 Y=-9.352923900542D+02 DE=-3.43D-04 F=  5.19D-04 OKLS=T
     Accept linear search using points  1 and  2.
     An  expanding polynomial of degree  2 produced  0.2148
 Iteration   6 EE= -935.292368224293     Delta-E=       -0.000321072057 Grad=2.042D-02 Max rot=    0.0997 deg.
 Gradient too large for Newton-Raphson -- use scaled steepest descent instead.
 Alpha Gap=     0.083 HL deriv= 4.42D-04
     ILin= 1 X=0.000D+00 Y=-9.352923682243D+02 DE= 0.00D+00 F= -5.10D-04
     ILin= 2 X=5.000D-01 Y=-9.352925475505D+02 DE=-1.79D-04 F= -2.08D-04 OKLS=F
     ILin= 3 X=1.000D+00 Y=-9.352925758518D+02 DE=-2.08D-04 F=  9.44D-05
     Accept linear search using points  2 and  3.
     An  expanding polynomial of degree  3 produced  0.7748
 Iteration   7 EE= -935.292581793994     Delta-E=       -0.000213569701 Grad=4.549D-03 Max rot=    0.0201 deg.
 QCNR:  CnvC1=1.29D-08 CnvC2=1.29D-07
 LinEq1:  Iter=  0 NonCon=     1 RMS=6.91D-05 Max=3.12D-03 NDo=     1
 AX will form     1 AO Fock derivatives at one time.
 LinEq1:  Iter=  1 NonCon=     1 RMS=8.48D-05 Max=1.93D-03 NDo=     1
 LinEq1:  Iter=  2 NonCon=     1 RMS=3.92D-05 Max=1.36D-03 NDo=     1
 LinEq1:  Iter=  3 NonCon=     1 RMS=2.47D-05 Max=6.50D-04 NDo=     1
 LinEq1:  Iter=  4 NonCon=     1 RMS=2.58D-05 Max=1.01D-03 NDo=     1
 LinEq1:  Iter=  5 NonCon=     1 RMS=2.59D-05 Max=7.81D-04 NDo=     1
 LinEq1:  Iter=  6 NonCon=     1 RMS=1.90D-05 Max=5.62D-04 NDo=     1
 LinEq1:  Iter=  7 NonCon=     1 RMS=1.07D-05 Max=2.12D-04 NDo=     1
 LinEq1:  Iter=  8 NonCon=     1 RMS=8.01D-06 Max=1.73D-04 NDo=     1
 LinEq1:  Iter=  9 NonCon=     1 RMS=4.54D-06 Max=9.07D-05 NDo=     1
 LinEq1:  Iter= 10 NonCon=     1 RMS=4.20D-06 Max=1.07D-04 NDo=     1
 LinEq1:  Iter= 11 NonCon=     1 RMS=3.17D-06 Max=7.59D-05 NDo=     1
 LinEq1:  Iter= 12 NonCon=     1 RMS=2.63D-06 Max=8.69D-05 NDo=     1
 LinEq1:  Iter= 13 NonCon=     1 RMS=2.07D-06 Max=6.83D-05 NDo=     1
 LinEq1:  Iter= 14 NonCon=     1 RMS=1.63D-06 Max=3.05D-05 NDo=     1
 LinEq1:  Iter= 15 NonCon=     1 RMS=1.21D-06 Max=4.96D-05 NDo=     1
 LinEq1:  Iter= 16 NonCon=     1 RMS=9.72D-07 Max=2.04D-05 NDo=     1
 LinEq1:  Iter= 17 NonCon=     1 RMS=3.92D-07 Max=9.89D-06 NDo=     1
 LinEq1:  Iter= 18 NonCon=     1 RMS=3.03D-07 Max=7.15D-06 NDo=     1
 LinEq1:  Iter= 19 NonCon=     1 RMS=2.56D-07 Max=6.89D-06 NDo=     1
 LinEq1:  Iter= 20 NonCon=     1 RMS=1.41D-07 Max=3.00D-06 NDo=     1
 LinEq1:  Iter= 21 NonCon=     1 RMS=8.00D-08 Max=1.41D-06 NDo=     1
 LinEq1:  Iter= 22 NonCon=     1 RMS=3.07D-08 Max=4.65D-07 NDo=     1
 LinEq1:  Iter= 23 NonCon=     1 RMS=1.88D-08 Max=4.34D-07 NDo=     1
 LinEq1:  Iter= 24 NonCon=     0 RMS=6.95D-09 Max=9.52D-08 NDo=     1
 Linear equations converged to 1.293D-08 1.293D-07 after    24 iterations.
 Angle between quadratic step and gradient=  53.25 degrees.
     ILin= 1 X=0.000D+00 Y=-9.352925817940D+02 DE= 0.00D+00 F= -2.12D-05
     ILin= 2 X=1.000D+00 Y=-9.352925923854D+02 DE=-1.06D-05 F=  1.69D-08 OKLS=T
     Accept linear search using points  1 and  2.
     An  expanding polynomial of degree  2 produced  0.9992
     Minimum is close to point  2 DX= -7.96D-04 DF= -6.71D-12 DXR=  7.97D-04 DFR=  6.33D-07 which will be used.
 Iteration   8 EE= -935.292592385411     Delta-E=       -0.000010591417 Grad=3.657D-06 Max rot=    0.0000 deg.
 QCNR:  CnvC1=3.66D-11 CnvC2=3.66D-10
 LinEq1:  Iter=  0 NonCon=     1 RMS=9.29D-08 Max=3.55D-06 NDo=     1
 LinEq1:  Iter=  1 NonCon=     1 RMS=1.34D-07 Max=4.38D-06 NDo=     1
 LinEq1:  Iter=  2 NonCon=     1 RMS=7.16D-08 Max=2.34D-06 NDo=     1
 LinEq1:  Iter=  3 NonCon=     1 RMS=3.81D-08 Max=1.43D-06 NDo=     1
 LinEq1:  Iter=  4 NonCon=     1 RMS=4.25D-08 Max=1.63D-06 NDo=     1
 LinEq1:  Iter=  5 NonCon=     1 RMS=2.91D-08 Max=6.31D-07 NDo=     1
 LinEq1:  Iter=  6 NonCon=     1 RMS=2.64D-08 Max=5.56D-07 NDo=     1
 LinEq1:  Iter=  7 NonCon=     1 RMS=2.48D-08 Max=7.57D-07 NDo=     1
 LinEq1:  Iter=  8 NonCon=     1 RMS=2.21D-08 Max=6.10D-07 NDo=     1
 LinEq1:  Iter=  9 NonCon=     1 RMS=1.74D-08 Max=4.69D-07 NDo=     1
 LinEq1:  Iter= 10 NonCon=     1 RMS=1.20D-08 Max=2.98D-07 NDo=     1
 LinEq1:  Iter= 11 NonCon=     1 RMS=9.25D-09 Max=2.34D-07 NDo=     1
 LinEq1:  Iter= 12 NonCon=     1 RMS=5.50D-09 Max=1.49D-07 NDo=     1
 LinEq1:  Iter= 13 NonCon=     1 RMS=6.26D-09 Max=1.82D-07 NDo=     1
 LinEq1:  Iter= 14 NonCon=     1 RMS=4.50D-09 Max=1.78D-07 NDo=     1
 LinEq1:  Iter= 15 NonCon=     1 RMS=2.96D-09 Max=6.01D-08 NDo=     1
 LinEq1:  Iter= 16 NonCon=     1 RMS=1.86D-09 Max=4.86D-08 NDo=     1
 LinEq1:  Iter= 17 NonCon=     1 RMS=1.52D-09 Max=4.27D-08 NDo=     1
 LinEq1:  Iter= 18 NonCon=     1 RMS=9.86D-10 Max=2.32D-08 NDo=     1
 LinEq1:  Iter= 19 NonCon=     1 RMS=1.03D-09 Max=2.53D-08 NDo=     1
 LinEq1:  Iter= 20 NonCon=     1 RMS=3.27D-10 Max=9.57D-09 NDo=     1
 LinEq1:  Iter= 21 NonCon=     1 RMS=2.94D-10 Max=6.33D-09 NDo=     1
 LinEq1:  Iter= 22 NonCon=     1 RMS=7.84D-11 Max=1.66D-09 NDo=     1
 LinEq1:  Iter= 23 NonCon=     1 RMS=6.41D-11 Max=1.22D-09 NDo=     1
 LinEq1:  Iter= 24 NonCon=     1 RMS=2.03D-11 Max=7.04D-10 NDo=     1
 LinEq1:  Iter= 25 NonCon=     1 RMS=1.74D-11 Max=4.05D-10 NDo=     1
 LinEq1:  Iter= 26 NonCon=     0 RMS=5.66D-12 Max=1.53D-10 NDo=     1
 Linear equations converged to 3.657D-11 3.657D-10 after    26 iterations.
 Angle between quadratic step and gradient=  46.11 degrees.
     ILin= 1 X=0.000D+00 Y=-9.352925923854D+02 DE= 0.00D+00 F= -4.13D-11
     ILin= 2 X=1.000D+00 Y=-9.352925923854D+02 DE=-2.23D-11
 Iteration   9 EE= -935.292592385433     Delta-E=       -0.000000000022 Grad=4.257D-11 Max rot=    0.0000 deg.
 Rotation gradient small -- convergence achieved.
 SCF Done:  E(RB-LYP) =  -935.292592385     a.u. after    9 cycles
            Convg  =    0.4257D-10                    69 Fock formations.
              S**2 =  0.0000                  -V/T =  2.0062
 Leave Link  508 at Thu Oct 26 08:13:31 2023, MaxMem=   805306368 cpu:             388.1 elap:             388.1
 (Enter /opt/gaussian/g16/l801.exe)
 DoSCS=F DFT=T ScalE2(SS,OS)=  1.000000  1.000000
 Range of M.O.s used for correlation:     1   191
 NBasis=   191 NAE=    68 NBE=    68 NFC=     0 NFV=     0
 NROrb=    191 NOA=    68 NOB=    68 NVA=   123 NVB=   123

 **** Warning!!: The smallest alpha delta epsilon is  0.78440443D-01

 Leave Link  801 at Thu Oct 26 08:13:32 2023, MaxMem=   805306368 cpu:               0.0 elap:               0.0
 (Enter /opt/gaussian/g16/l1101.exe)
 Using compressed storage, NAtomX=    29.
 Will process     30 centers per pass.
 R6Disp: Adding Grimme-D3 dispersion energy 1st derivatives to the gradient.
 Leave Link 1101 at Thu Oct 26 08:13:32 2023, MaxMem=   805306368 cpu:               0.1 elap:               0.1
 (Enter /opt/gaussian/g16/l1102.exe)
 Symmetrizing basis deriv contribution to polar:
 IMax=3 JMax=2 DiffMx= 0.00D+00
 Leave Link 1102 at Thu Oct 26 08:13:32 2023, MaxMem=   805306368 cpu:               0.0 elap:               0.0
 (Enter /opt/gaussian/g16/l1110.exe)
 Forming Gx(P) for the SCF density, NAtomX=    29.
 Integral derivatives from FoFJK, PRISM(SPDF).
 Do as many integral derivatives as possible in FoFJK.
 G2DrvN: MDV=     805303303.
 G2DrvN: will do    30 centers at a time, making    1 passes.
 Calling FoFCou, ICntrl=  3507 FMM=F I1Cent=   0 AccDes= 0.00D+00.
 FoFJK:  IHMeth= 1 ICntrl=    3507 DoSepK=F KAlg= 0 I1Cent=           0 FoldK=F
 IRaf=         0 NMat=       1 IRICut=       1 DoRegI=T DoRafI=F ISym2E= 0 IDoP0=0 IntGTp=1.
 FoFCou: FMM=F IPFlag=           0 FMFlag=      100000 FMFlg1=           0
         NFxFlg=           0 DoJE=F BraDBF=F KetDBF=F FulRan=T
         wScrn=  0.000000 ICntrl=      3507 IOpCl=  0 I1Cent=           0 NGrid=           0
         NMat0=    1 NMatS0=      1 NMatT0=    0 NMatD0=    1 NMtDS0=    0 NMtDT0=    0
 Symmetry not used in FoFCou.
 End of G2Drv F.D. properties file   721 does not exist.
 End of G2Drv F.D. properties file   722 does not exist.
 End of G2Drv F.D. properties file   788 does not exist.
 Leave Link 1110 at Thu Oct 26 08:16:30 2023, MaxMem=   805306368 cpu:             178.5 elap:             178.5
 (Enter /opt/gaussian/g16/l1002.exe)
 Minotr:  Closed shell wavefunction.
          IDoAtm=11111111111111111111111111111
          Direct CPHF calculation.
          Differentiating once with respect to electric field.
                with respect to dipole field.
          Differentiating once with respect to nuclear coordinates.
          Requested convergence is 1.0D-08 RMS, and 1.0D-07 maximum.
          Secondary convergence is 1.0D-12 RMS, and 1.0D-12 maximum.
          NewPWx=T KeepS1=F KeepF1=F KeepIn=T MapXYZ=F SortEE=F KeepMc=T.
         8741 words used for storage of precomputed grid.
 Keep J ints in memory in canonical form, NReq=171666619.
 FoFCou: FMM=F IPFlag=           0 FMFlag=           0 FMFlg1=           0
         NFxFlg=           0 DoJE=F BraDBF=F KetDBF=F FulRan=T
         wScrn=  0.000000 ICntrl=       600 IOpCl=  0 I1Cent=           0 NGrid=           0
         NMat0=    1 NMatS0=  18336 NMatT0=    0 NMatD0=    1 NMtDS0=    0 NMtDT0=    0
 Symmetry not used in FoFCou.
 Two-electron integral symmetry not used.
          MDV=     805306368 using IRadAn=       1.
          Solving linear equations simultaneously, MaxMat=       0.
          There are    90 degrees of freedom in the 1st order CPHF.  IDoFFX=6 NUNeed=     3.
     87 vectors produced by pass  0 Test12= 9.29D-15 1.11D-09 XBig12= 5.35D+02 1.01D+01.
 AX will form    87 AO Fock derivatives at one time.
     87 vectors produced by pass  1 Test12= 9.29D-15 1.11D-09 XBig12= 1.53D+02 2.03D+00.
     87 vectors produced by pass  2 Test12= 9.29D-15 1.11D-09 XBig12= 8.73D-01 1.11D-01.
     87 vectors produced by pass  3 Test12= 9.29D-15 1.11D-09 XBig12= 4.54D-04 2.43D-03.
     74 vectors produced by pass  4 Test12= 9.29D-15 1.11D-09 XBig12= 7.46D-08 2.38D-05.
     10 vectors produced by pass  5 Test12= 9.29D-15 1.11D-09 XBig12= 3.33D-12 1.30D-07.
      2 vectors produced by pass  6 Test12= 9.29D-15 1.11D-09 XBig12= 1.96D-16 1.29D-09.
 InvSVY:  IOpt=1 It=  1 EMax= 7.11D-15
 Solved reduced A of dimension   434 with    90 vectors.
 FullF1:  Do perturbations      1 to       3.
 Isotropic polarizability for W=    0.000000      148.94 Bohr**3.
 End of Minotr F.D. properties file   721 does not exist.
 End of Minotr F.D. properties file   722 does not exist.
 End of Minotr F.D. properties file   788 does not exist.
 Leave Link 1002 at Thu Oct 26 08:18:43 2023, MaxMem=   805306368 cpu:             133.1 elap:             133.2
 (Enter /opt/gaussian/g16/l601.exe)
 Copying SCF densities to generalized density rwf, IOpCl= 0 IROHF=0.

 **********************************************************************

            Population analysis using the SCF Density.

 **********************************************************************

 Orbital symmetries:
       Occupied  (A) (A) (A) (A) (A) (A) (A) (A) (A) (A) (A) (A)
                 (A) (A) (A) (A) (A) (A) (A) (A) (A) (A) (A) (A)
                 (A) (A) (A) (A) (A) (A) (A) (A) (A) (A) (A) (A)
                 (A) (A) (A) (A) (A) (A) (A) (A) (A) (A) (A) (A)
                 (A) (A) (A) (A) (A) (A) (A) (A) (A) (A) (A) (A)
                 (A) (A) (A) (A) (A) (A) (A) (A)
       Virtual   (A) (A) (A) (A) (A) (A) (A) (A) (A) (A) (A) (A)
                 (A) (A) (A) (A) (A) (A) (A) (A) (A) (A) (A) (A)
                 (A) (A) (A) (A) (A) (A) (A) (A) (A) (A) (A) (A)
                 (A) (A) (A) (A) (A) (A) (A) (A) (A) (A) (A) (A)
                 (A) (A) (A) (A) (A) (A) (A) (A) (A) (A) (A) (A)
                 (A) (A) (A) (A) (A) (A) (A) (A) (A) (A) (A) (A)
                 (A) (A) (A) (A) (A) (A) (A) (A) (A) (A) (A) (A)
                 (A) (A) (A) (A) (A) (A) (A) (A) (A) (A) (A) (A)
                 (A) (A) (A) (A) (A) (A) (A) (A) (A) (A) (A) (A)
                 (A) (A) (A) (A) (A) (A) (A) (A) (A) (A) (A) (A)
                 (A) (A) (A)
 The electronic state is 1-A.
 Alpha  occ. eigenvalues --  -18.76809 -18.74110 -14.09600 -14.06065 -14.04261
 Alpha  occ. eigenvalues --  -14.03482 -14.02460 -14.01433 -13.98954 -13.98894
 Alpha  occ. eigenvalues --  -10.05525 -10.02601 -10.01708 -10.00579 -10.00182
 Alpha  occ. eigenvalues --   -9.97105  -9.96175  -9.94953  -9.91775  -0.96037
 Alpha  occ. eigenvalues --   -0.92004  -0.90164  -0.89315  -0.87604  -0.86437
 Alpha  occ. eigenvalues --   -0.80002  -0.79244  -0.78469  -0.76566  -0.71865
 Alpha  occ. eigenvalues --   -0.65478  -0.60818  -0.59639  -0.57581  -0.55643
 Alpha  occ. eigenvalues --   -0.53181  -0.52244  -0.51030  -0.49933  -0.48017
 Alpha  occ. eigenvalues --   -0.45464  -0.45140  -0.43995  -0.42444  -0.40608
 Alpha  occ. eigenvalues --   -0.40413  -0.40341  -0.39471  -0.37980  -0.37520
 Alpha  occ. eigenvalues --   -0.35602  -0.34978  -0.33399  -0.33188  -0.32449
 Alpha  occ. eigenvalues --   -0.30855  -0.30215  -0.23763  -0.23078  -0.21818
 Alpha  occ. eigenvalues --   -0.21224  -0.20637  -0.20560  -0.20334  -0.18978
 Alpha  occ. eigenvalues --   -0.18396  -0.17097  -0.13912
 Alpha virt. eigenvalues --   -0.06068  -0.01826  -0.00086   0.01062   0.04019
 Alpha virt. eigenvalues --    0.04828   0.07702   0.08676   0.08732   0.09180
 Alpha virt. eigenvalues --    0.10735   0.12999   0.13429   0.14901   0.15165
 Alpha virt. eigenvalues --    0.16888   0.18183   0.19130   0.19548   0.20857
 Alpha virt. eigenvalues --    0.22681   0.23680   0.25621   0.26472   0.28370
 Alpha virt. eigenvalues --    0.29727   0.31388   0.34453   0.34826   0.36923
 Alpha virt. eigenvalues --    0.37875   0.39462   0.41726   0.44468   0.46969
 Alpha virt. eigenvalues --    0.51347   0.53612   0.60171   0.60539   0.63347
 Alpha virt. eigenvalues --    0.64277   0.64719   0.67645   0.68852   0.68913
 Alpha virt. eigenvalues --    0.69294   0.69803   0.70071   0.71013   0.72444
 Alpha virt. eigenvalues --    0.72658   0.74553   0.74791   0.77488   0.77885
 Alpha virt. eigenvalues --    0.78357   0.80075   0.80562   0.82181   0.84290
 Alpha virt. eigenvalues --    0.85575   0.86098   0.88059   0.91052   0.93077
 Alpha virt. eigenvalues --    0.98538   0.99510   1.03144   1.04192   1.05143
 Alpha virt. eigenvalues --    1.06713   1.07712   1.08150   1.08364   1.09904
 Alpha virt. eigenvalues --    1.10472   1.13538   1.15652   1.16624   1.18262
 Alpha virt. eigenvalues --    1.19433   1.22185   1.22502   1.24016   1.26320
 Alpha virt. eigenvalues --    1.27108   1.30437   1.33510   1.33740   1.35430
 Alpha virt. eigenvalues --    1.36227   1.43918   1.46162   1.47979   1.48597
 Alpha virt. eigenvalues --    1.51396   1.51657   1.54016   1.55953   1.59721
 Alpha virt. eigenvalues --    1.60730   1.62861   1.63619   1.66184   1.67625
 Alpha virt. eigenvalues --    1.74371   1.76574   1.79802   1.90861   1.98696
 Alpha virt. eigenvalues --    1.99196   2.03231   2.12924   2.51656   2.57657
 Alpha virt. eigenvalues --    2.60895   2.72772   2.79138   2.86853   2.88471
 Alpha virt. eigenvalues --    3.12149   3.28247   3.44582
          Condensed to atoms (all electrons):
               1          2          3          4          5          6
     1  C    4.956193   0.465415  -0.139243  -0.130305   0.242270  -0.013203
     2  N    0.465415   6.922915   0.315816  -0.060300  -0.077778   0.002073
     3  C   -0.139243   0.315816   5.742304   0.111988  -0.083578   0.007825
     4  C   -0.130305  -0.060300   0.111988   5.132655   0.233718  -0.023113
     5  N    0.242270  -0.077778  -0.083578   0.233718   7.147654   0.308554
     6  H   -0.013203   0.002073   0.007825  -0.023113   0.308554   0.410351
     7  N    0.002187   0.002042  -0.041871   0.364582  -0.038299   0.002626
     8  C   -0.000000   0.000362  -0.005432  -0.107789   0.001294  -0.000041
     9  N   -0.000101   0.000899  -0.114832  -0.008515   0.000067   0.000009
    10  C    0.005418  -0.040954   0.161209  -0.074095   0.003224  -0.000011
    11  O   -0.000013  -0.000948  -0.079035   0.002481  -0.000003   0.000000
    12  N    0.000000   0.000000  -0.000016   0.000837  -0.000007  -0.000002
    13  H    0.375554  -0.033029   0.005102   0.001991  -0.045546   0.000685
    14  H    0.000001  -0.000006   0.003199   0.000031   0.000001  -0.000000
    15  H    0.000000  -0.000000   0.000054   0.000142  -0.000005   0.000002
    16  H   -0.000000  -0.000000   0.000001  -0.000078   0.000000   0.000000
    17  C   -0.000000   0.000000  -0.000000   0.000000  -0.000000   0.000000
    18  C    0.000000   0.000000   0.000000  -0.000000   0.000000  -0.000000
    19  N    0.000000   0.000000  -0.000000   0.000000  -0.000000   0.000000
    20  C    0.000000   0.000000   0.000000   0.000000  -0.000000   0.000000
    21  O    0.000000   0.000000   0.000000   0.000000  -0.000000  -0.000000
    22  N   -0.000000   0.000000  -0.000011  -0.000000  -0.000000   0.000000
    23  C   -0.000000   0.000000  -0.000007   0.000000  -0.000000   0.000000
    24  N   -0.000000  -0.000000  -0.000054   0.000000  -0.000000   0.000000
    25  H    0.000000  -0.000000   0.000000  -0.000000   0.000000  -0.000000
    26  H    0.000000  -0.000000   0.000000   0.000000   0.000000  -0.000000
    27  H   -0.000000   0.000000  -0.000000   0.000000  -0.000000   0.000000
    28  H    0.000000   0.000001   0.001908  -0.000037   0.000000  -0.000000
    29  H    0.000000  -0.000000   0.000001  -0.000000   0.000000  -0.000000
               7          8          9         10         11         12
     1  C    0.002187  -0.000000  -0.000101   0.005418  -0.000013   0.000000
     2  N    0.002042   0.000362   0.000899  -0.040954  -0.000948   0.000000
     3  C   -0.041871  -0.005432  -0.114832   0.161209  -0.079035  -0.000016
     4  C    0.364582  -0.107789  -0.008515  -0.074095   0.002481   0.000837
     5  N   -0.038299   0.001294   0.000067   0.003224  -0.000003  -0.000007
     6  H    0.002626  -0.000041   0.000009  -0.000011   0.000000  -0.000002
     7  N    6.988495   0.463347  -0.060328  -0.013938  -0.000002  -0.060736
     8  C    0.463347   4.422717   0.229101  -0.042962   0.000936   0.321742
     9  N   -0.060328   0.229101   7.493221   0.160798  -0.062342  -0.063639
    10  C   -0.013938  -0.042962   0.160798   4.785233   0.485625   0.000598
    11  O   -0.000002   0.000936  -0.062342   0.485625   8.065257  -0.000002
    12  N   -0.060736   0.321742  -0.063639   0.000598  -0.000002   7.019468
    13  H   -0.000013   0.000002   0.000000  -0.000050  -0.000000  -0.000000
    14  H    0.000986  -0.014371   0.217340  -0.016853  -0.000845  -0.001319
    15  H    0.004702  -0.028670   0.003597  -0.000025   0.000000   0.312542
    16  H    0.001374  -0.020612  -0.001645  -0.000060  -0.000001   0.240324
    17  C   -0.000000  -0.000000  -0.000026  -0.000002  -0.000004   0.000000
    18  C    0.000000   0.000000   0.000000   0.000000   0.000000   0.000000
    19  N   -0.000000  -0.000001  -0.000003   0.000000  -0.000000  -0.000005
    20  C   -0.000001  -0.000042  -0.000062   0.000029   0.000002  -0.000553
    21  O   -0.000000  -0.000226   0.000088   0.000001   0.000000  -0.016682
    22  N   -0.000002  -0.000132  -0.028256   0.000022  -0.000051   0.000257
    23  C   -0.000000   0.000005  -0.000577   0.000049  -0.000493   0.000003
    24  N   -0.000000  -0.000000   0.000518  -0.000477  -0.027113  -0.000000
    25  H    0.000000   0.000000   0.000000   0.000000   0.000000   0.000000
    26  H    0.000000   0.000000   0.000000   0.000000   0.000000   0.000000
    27  H   -0.000000  -0.000000  -0.000000  -0.000000  -0.000000  -0.000000
    28  H    0.000001   0.000027  -0.002932  -0.001488   0.122243  -0.000000
    29  H    0.000000   0.000000  -0.000008   0.000031   0.000461  -0.000000
              13         14         15         16         17         18
     1  C    0.375554   0.000001   0.000000  -0.000000  -0.000000   0.000000
     2  N   -0.033029  -0.000006  -0.000000  -0.000000   0.000000   0.000000
     3  C    0.005102   0.003199   0.000054   0.000001  -0.000000   0.000000
     4  C    0.001991   0.000031   0.000142  -0.000078   0.000000  -0.000000
     5  N   -0.045546   0.000001  -0.000005   0.000000  -0.000000   0.000000
     6  H    0.000685  -0.000000   0.000002   0.000000   0.000000  -0.000000
     7  N   -0.000013   0.000986   0.004702   0.001374  -0.000000   0.000000
     8  C    0.000002  -0.014371  -0.028670  -0.020612  -0.000000   0.000000
     9  N    0.000000   0.217340   0.003597  -0.001645  -0.000026   0.000000
    10  C   -0.000050  -0.016853  -0.000025  -0.000060  -0.000002   0.000000
    11  O   -0.000000  -0.000845   0.000000  -0.000001  -0.000004   0.000000
    12  N   -0.000000  -0.001319   0.312542   0.240324   0.000000   0.000000
    13  H    0.503618  -0.000000  -0.000000   0.000000   0.000000   0.000000
    14  H   -0.000000   0.350089   0.000007   0.003342   0.000719  -0.000007
    15  H   -0.000000   0.000007   0.425375  -0.014158   0.000000  -0.000000
    16  H    0.000000   0.003342  -0.014158   0.384707  -0.000003  -0.000011
    17  C    0.000000   0.000719   0.000000  -0.000003   5.344580   0.473073
    18  C    0.000000  -0.000007  -0.000000  -0.000011   0.473073   4.934030
    19  N    0.000000   0.000293   0.000000   0.000487  -0.051322   0.282833
    20  C   -0.000000  -0.002238   0.000022   0.000445  -0.013810  -0.048092
    21  O   -0.000000  -0.001494   0.000159   0.092031   0.000063   0.000926
    22  N    0.000000   0.111846  -0.000001  -0.002417  -0.050939  -0.010282
    23  C    0.000000  -0.000858  -0.000000   0.000017   0.268242  -0.081577
    24  N    0.000000  -0.002767  -0.000000   0.000000  -0.076608   0.003248
    25  H   -0.000000  -0.000009  -0.000000  -0.000016   0.003303  -0.026845
    26  H   -0.000000  -0.000006  -0.000000  -0.000000   0.375359  -0.038904
    27  H    0.000000   0.000000   0.000000   0.000000  -0.032628   0.371166
    28  H   -0.000000   0.004443   0.000000   0.000000   0.001973  -0.000046
    29  H   -0.000000   0.000038   0.000000   0.000000  -0.001320   0.000241
              19         20         21         22         23         24
     1  C    0.000000   0.000000   0.000000  -0.000000  -0.000000  -0.000000
     2  N    0.000000   0.000000   0.000000   0.000000   0.000000  -0.000000
     3  C   -0.000000   0.000000   0.000000  -0.000011  -0.000007  -0.000054
     4  C    0.000000   0.000000   0.000000  -0.000000   0.000000   0.000000
     5  N   -0.000000  -0.000000  -0.000000  -0.000000  -0.000000  -0.000000
     6  H    0.000000   0.000000  -0.000000   0.000000   0.000000   0.000000
     7  N   -0.000000  -0.000001  -0.000000  -0.000002  -0.000000  -0.000000
     8  C   -0.000001  -0.000042  -0.000226  -0.000132   0.000005  -0.000000
     9  N   -0.000003  -0.000062   0.000088  -0.028256  -0.000577   0.000518
    10  C    0.000000   0.000029   0.000001   0.000022   0.000049  -0.000477
    11  O   -0.000000   0.000002   0.000000  -0.000051  -0.000493  -0.027113
    12  N   -0.000005  -0.000553  -0.016682   0.000257   0.000003  -0.000000
    13  H    0.000000  -0.000000  -0.000000   0.000000   0.000000   0.000000
    14  H    0.000293  -0.002238  -0.001494   0.111846  -0.000858  -0.002767
    15  H    0.000000   0.000022   0.000159  -0.000001  -0.000000  -0.000000
    16  H    0.000487   0.000445   0.092031  -0.002417   0.000017   0.000000
    17  C   -0.051322  -0.013810   0.000063  -0.050939   0.268242  -0.076608
    18  C    0.282833  -0.048092   0.000926  -0.010282  -0.081577   0.003248
    19  N    7.216683   0.113603  -0.066636  -0.081469  -0.013009   0.000009
    20  C    0.113603   4.529890   0.486189   0.225032  -0.041421   0.001619
    21  O   -0.066636   0.486189   8.034196  -0.059722   0.000673  -0.000002
    22  N   -0.081469   0.225032  -0.059722   7.238620   0.354299  -0.062784
    23  C   -0.013009  -0.041421   0.000673   0.354299   4.662528   0.331583
    24  N    0.000009   0.001619  -0.000002  -0.062784   0.331583   7.053447
    25  H    0.301345  -0.011493   0.005740   0.003132   0.000062   0.000003
    26  H    0.002261   0.000457   0.000001   0.002123  -0.028831  -0.003136
    27  H   -0.037404   0.001190  -0.000023  -0.000102   0.003574  -0.000030
    28  H    0.000001  -0.000034  -0.000002  -0.001557  -0.018331   0.193910
    29  H    0.000007  -0.000082   0.000000   0.002728  -0.040210   0.322691
              25         26         27         28         29
     1  C    0.000000   0.000000  -0.000000   0.000000   0.000000
     2  N   -0.000000  -0.000000   0.000000   0.000001  -0.000000
     3  C    0.000000   0.000000  -0.000000   0.001908   0.000001
     4  C   -0.000000   0.000000   0.000000  -0.000037  -0.000000
     5  N    0.000000   0.000000  -0.000000   0.000000   0.000000
     6  H   -0.000000  -0.000000   0.000000  -0.000000  -0.000000
     7  N    0.000000   0.000000  -0.000000   0.000001   0.000000
     8  C    0.000000   0.000000  -0.000000   0.000027   0.000000
     9  N    0.000000   0.000000  -0.000000  -0.002932  -0.000008
    10  C    0.000000   0.000000  -0.000000  -0.001488   0.000031
    11  O    0.000000   0.000000  -0.000000   0.122243   0.000461
    12  N    0.000000   0.000000  -0.000000  -0.000000  -0.000000
    13  H   -0.000000  -0.000000   0.000000  -0.000000  -0.000000
    14  H   -0.000009  -0.000006   0.000000   0.004443   0.000038
    15  H   -0.000000  -0.000000   0.000000   0.000000   0.000000
    16  H   -0.000016  -0.000000   0.000000   0.000000   0.000000
    17  C    0.003303   0.375359  -0.032628   0.001973  -0.001320
    18  C   -0.026845  -0.038904   0.371166  -0.000046   0.000241
    19  N    0.301345   0.002261  -0.037404   0.000001   0.000007
    20  C   -0.011493   0.000457   0.001190  -0.000034  -0.000082
    21  O    0.005740   0.000001  -0.000023  -0.000002   0.000000
    22  N    0.003132   0.002123  -0.000102  -0.001557   0.002728
    23  C    0.000062  -0.028831   0.003574  -0.018331  -0.040210
    24  N    0.000003  -0.003136  -0.000030   0.193910   0.322691
    25  H    0.406877  -0.000043  -0.003764  -0.000000  -0.000000
    26  H   -0.000043   0.520286  -0.003484  -0.000030   0.002389
    27  H   -0.003764  -0.003484   0.484856   0.000000  -0.000000
    28  H   -0.000000  -0.000030   0.000000   0.368589  -0.010640
    29  H   -0.000000   0.002389  -0.000000  -0.010640   0.429528
 Mulliken charges:
               1
     1  C    0.235826
     2  N   -0.496509
     3  C    0.114672
     4  C    0.555806
     5  N   -0.691567
     6  H    0.304245
     7  N   -0.615151
     8  C    0.780745
     9  N   -0.762374
    10  C    0.588679
    11  O   -0.506153
    12  N   -0.752810
    13  H    0.191686
    14  H    0.348437
    15  H    0.296257
    16  H    0.316273
    17  C   -0.240650
    18  C    0.140246
    19  N   -0.667673
    20  C    0.759349
    21  O   -0.475279
    22  N   -0.640334
    23  C    0.604279
    24  N   -0.734059
    25  H    0.321707
    26  H    0.171558
    27  H    0.216650
    28  H    0.341998
    29  H    0.294145
 Sum of Mulliken charges =  -0.00000
 Mulliken charges with hydrogens summed into heavy atoms:
               1
     1  C    0.427512
     2  N   -0.496509
     3  C    0.114672
     4  C    0.555806
     5  N   -0.387322
     7  N   -0.615151
     8  C    0.780745
     9  N   -0.413937
    10  C    0.588679
    11  O   -0.506153
    12  N   -0.140279
    17  C   -0.069092
    18  C    0.356896
    19  N   -0.345966
    20  C    0.759349
    21  O   -0.475279
    22  N   -0.640334
    23  C    0.604279
    24  N   -0.097915
 APT charges:
               1
     1  C    0.132198
     2  N   -0.269318
     3  C   -0.324806
     4  C    0.633483
     5  N   -0.410305
     6  H    0.233365
     7  N   -0.798452
     8  C    1.044723
     9  N   -0.809515
    10  C    0.976556
    11  O   -0.897145
    12  N   -0.915387
    13  H    0.056214
    14  H    0.590582
    15  H    0.223823
    16  H    0.539400
    17  C   -0.397889
    18  C    0.375111
    19  N   -0.658469
    20  C    1.084974
    21  O   -0.819757
    22  N   -0.848420
    23  C    0.878413
    24  N   -0.867983
    25  H    0.231912
    26  H    0.045776
    27  H    0.055010
    28  H    0.710786
    29  H    0.205121
 Sum of APT charges =  -0.00000
 APT charges with hydrogens summed into heavy atoms:
               1
     1  C    0.188412
     2  N   -0.269318
     3  C   -0.324806
     4  C    0.633483
     5  N   -0.176939
     7  N   -0.798452
     8  C    1.044723
     9  N   -0.218933
    10  C    0.976556
    11  O   -0.897145
    12  N   -0.152164
    17  C   -0.352113
    18  C    0.430120
    19  N   -0.426557
    20  C    1.084974
    21  O   -0.819757
    22  N   -0.848420
    23  C    0.878413
    24  N    0.047924
 Electronic spatial extent (au):  <R**2>=           6108.5175
 Charge=             -0.0000 electrons
 Dipole moment (field-independent basis, Debye):
    X=             -6.5269    Y=              1.3997    Z=              0.0000  Tot=              6.6753
 Quadrupole moment (field-independent basis, Debye-Ang):
   XX=            -57.4260   YY=           -105.1555   ZZ=           -111.5625
   XY=             16.2133   XZ=              0.0001   YZ=             -0.0001
 Traceless Quadrupole moment (field-independent basis, Debye-Ang):
   XX=             33.9553   YY=            -13.7741   ZZ=            -20.1812
   XY=             16.2133   XZ=              0.0001   YZ=             -0.0001
 Octapole moment (field-independent basis, Debye-Ang**2):
  XXX=            -80.8965  YYY=              8.5673  ZZZ=              0.0000  XYY=            -55.0915
  XXY=             37.8473  XXZ=              0.0001  XZZ=             -1.8942  YZZ=              3.5167
  YYZ=              0.0008  XYZ=              0.0004
 Hexadecapole moment (field-independent basis, Debye-Ang**3):
 XXXX=          -4236.1978 YYYY=          -1326.8826 ZZZZ=            -96.9084 XXXY=             83.5407
 XXXZ=              0.0016 YYYX=            165.9037 YYYZ=             -0.0009 ZZZX=             -0.0023
 ZZZY=             -0.0006 XXYY=          -1240.4304 XXZZ=          -1160.6030 YYZZ=           -277.7140
 XXYZ=             -0.0018 YYXZ=             -0.0011 ZZXY=            -15.5615
 N-N= 1.376516393396D+03 E-N=-4.937369695505D+03  KE= 9.294987819341D+02
  Exact polarizability:     232.137      -7.034     175.754       0.000      -0.000      38.939
 Approx polarizability:     407.110     -17.442     470.262       0.001      -0.000      56.727
 No NMR shielding tensors so no spin-rotation constants.
 Leave Link  601 at Thu Oct 26 08:18:44 2023, MaxMem=   805306368 cpu:               0.1 elap:               0.1
 (Enter /opt/gaussian/g16/l701.exe)
 SCFChk:  SCF convergence  3.29D-13 required  1.00D-08
 ... and contract with generalized density number  0.
 Compute integral second derivatives.
 R6Disp: Adding Grimme-D3 dispersion energy 2nd derivatives to the Hessian.
 Entering OneElI...
 Calculate overlap and kinetic energy integrals
    NBasis = 191  MinDer = 2  MaxDer = 2
 Requested accuracy = 0.1000D-12
 PrmmSu-InSpLW:  IPartL=    0 NPrtUS=    1 NPrtUL=    1 DoSpLW=F IThBeg=    0 IThEnd=    0 NThAct=    1.
 PrSmSu:  IncTry=   512 NBBP=           2523 NTPThr=   100 NPartT=    1 Incr=          25 LDynOK=F GPUOK=F.
 PrsmSu:  NPrtUS=   1 ThrOK=F IAlg=2 LenDen=           0 ISkipM=0 DoSpLW=F IThBeg=    0 IThEnd=    0.
 Prism:   IPart=     0 DynPar=F LinDyn=F Incr=          25.
 PRISM was handed   804985861 working-precision words and  2523 shell-pairs
 IPart=  0 NShTot=        2523 NBatch=          63 AvBLen=        40.0
 PrSmSu:  NxtVal=             26.
 Entering OneElI...
 Calculate potential energy integrals
    NBasis = 191  MinDer = 2  MaxDer = 2
 Requested accuracy = 0.1000D-12
 PrmmSu-InSpLW:  IPartL=    0 NPrtUS=    1 NPrtUL=    1 DoSpLW=F IThBeg=    0 IThEnd=    0 NThAct=    1.
 PrSmSu:  IncTry=   512 NBBP=          56956 NTPThr=   100 NPartT=    1 Incr=         512 LDynOK=F GPUOK=F.
 PrsmSu:  NPrtUS=   1 ThrOK=F IAlg=2 LenDen=           0 ISkipM=0 DoSpLW=F IThBeg=    0 IThEnd=    0.
 Prism:   IPart=     0 DynPar=F LinDyn=F Incr=         512.
 PRISM was handed   805056617 working-precision words and  1964 shell-pairs
 IPart=  0 NShTot=       56956 NBatch=        1964 AvBLen=        29.0
 PrSmSu:  NxtVal=            513.
 Polarizability after L701:
                1             2             3 
      1  0.232137D+03
      2 -0.703358D+01  0.175754D+03
      3  0.423464D-03 -0.324220D-04  0.389393D+02
 Dipole Derivatives after L701:
                 1             2             3             4             5 
      1  -0.100510D-01  0.173413D+00  0.567687D-05 -0.182349D+00 -0.874639D-01
      2  -0.640158D-01  0.450530D+00  0.000000D+00  0.184336D-01 -0.390914D+00
      3   0.144865D-05  0.117883D-05 -0.438851D-01  0.000000D+00  0.000000D+00
                 6             7             8             9            10 
      1  -0.126265D-05 -0.587064D+00 -0.177380D+00 -0.297206D-05  0.977209D+00
      2   0.000000D+00 -0.353927D+00 -0.299073D+00 -0.106958D-05 -0.195483D+00
      3  -0.234692D+00 -0.178128D-05 -0.232158D-05 -0.882809D-01  0.000000D+00
                11            12            13            14            15 
      1  -0.242858D+00  0.000000D+00 -0.601179D+00 -0.133365D+00 -0.465866D-05
      2   0.729183D+00  0.290001D-05  0.937440D-01 -0.274928D+00  0.000000D+00
      3   0.234237D-05  0.194058D+00  0.000000D+00  0.000000D+00 -0.354807D+00
                16            17            18            19            20 
      1   0.208622D+00 -0.223143D-02  0.000000D+00 -0.131065D+01  0.129985D+00
      2  -0.152708D-02  0.125838D+00  0.000000D+00  0.585960D+00 -0.743248D+00
      3   0.000000D+00  0.000000D+00  0.365636D+00  0.301766D-05  0.000000D+00
                21            22            23            24            25 
      1   0.148807D-05  0.158984D+01 -0.276202D+00 -0.771431D-05 -0.112661D+01
      2  -0.217095D-05 -0.720016D+00  0.114613D+01  0.884393D-05  0.183060D-01
      3  -0.341459D+00 -0.454616D-05  0.566137D-05  0.398202D+00  0.000000D+00
                26            27            28            29            30 
      1  -0.102478D+00  0.268594D-05  0.133192D+01  0.645684D+00  0.895205D-05
      2  -0.909314D+00 -0.425618D-05  0.254837D+00  0.131374D+01  0.693575D-05
      3  -0.419583D-05 -0.392625D+00  0.518791D-05  0.727132D-05  0.284003D+00
                31            32            33            34            35 
      1  -0.134694D+01 -0.765207D+00  0.501127D-05 -0.121466D+01  0.624110D+00
      2  -0.421309D+00 -0.995998D+00 -0.277487D-05  0.532617D+00 -0.824078D+00
      3  -0.302916D-05 -0.460954D-05 -0.348494D+00  0.212260D-05  0.211705D-05
                36            37            38            39            40 
      1   0.510957D-05 -0.622419D-01  0.150293D-01 -0.301788D-05  0.139278D+01
      2   0.000000D+00  0.431311D-01  0.665518D-01  0.000000D+00  0.165163D+00
      3  -0.707421D+00  0.000000D+00  0.000000D+00  0.164331D+00  0.000000D+00
                41            42            43            44            45 
      1   0.144654D+00 -0.340979D-05  0.101293D+00 -0.595218D-01  0.000000D+00
      2   0.782922D-01 -0.144259D-05 -0.549712D-01  0.212444D+00 -0.340679D-05
      3   0.000000D+00  0.300671D+00  0.000000D+00 -0.223282D-05  0.357731D+00
                46            47            48            49            50 
      1   0.109581D+01  0.145952D+00  0.479233D-05 -0.674545D+00  0.134511D+00
      2   0.170238D+00  0.174721D+00  0.000000D+00  0.300967D+00 -0.243322D+00
      3   0.135992D-05 -0.183228D-05  0.347666D+00 -0.402945D-05 -0.312777D-05
                51            52            53            54            55 
      1  -0.357166D-05  0.211848D+00 -0.318378D+00 -0.388755D-05 -0.848444D+00
      2  -0.686233D-05  0.940475D-01  0.851563D+00  0.332747D-05 -0.476080D+00
      3  -0.275800D+00  0.000000D+00 -0.345031D-05  0.619200D-01  0.000000D+00
                56            57            58            59            60 
      1   0.143958D+00 -0.222609D-05  0.133075D+01  0.367716D+00  0.617698D-05
      2  -0.742476D+00 -0.366548D-05  0.147539D+00  0.158807D+01  0.320358D-05
      3   0.336041D-05 -0.384488D+00  0.401370D-05  0.000000D+00  0.336108D+00
                61            62            63            64            65 
      1  -0.979198D+00 -0.454232D+00 -0.553447D-05 -0.934673D+00 -0.385908D-01
      2  -0.255410D+00 -0.111851D+01 -0.435946D-05  0.281094D-01 -0.126033D+01
      3   0.000000D+00  0.000000D+00 -0.361567D+00  0.102943D-05  0.406551D-05
                66            67            68            69            70 
      1   0.347193D-05  0.106685D+01 -0.234028D+00  0.527854D-05 -0.123762D+01
      2   0.243006D-05 -0.384884D+00  0.120144D+01 -0.682704D-05  0.452785D+00
      3  -0.350256D+00  0.837842D-05 -0.601827D-05  0.366951D+00 -0.515784D-05
                71            72            73            74            75 
      1   0.309657D+00  0.000000D+00  0.171044D+00 -0.232043D-01 -0.136316D-05
      2  -0.739534D+00  0.135277D-04 -0.500952D-01  0.180212D+00 -0.121698D-05
      3   0.000000D+00 -0.626792D+00  0.000000D+00  0.000000D+00  0.344480D+00
                76            77            78            79            80 
      1   0.114178D-01 -0.681786D-01  0.123036D-05 -0.651301D-01 -0.143551D-01
      2  -0.286323D-01 -0.318267D-01  0.442912D-05 -0.148704D-01  0.767182D-01
      3   0.000000D+00  0.180391D-05  0.157736D+00 -0.108351D-05  0.000000D+00
                81            82            83            84            85 
      1   0.395277D-05  0.161229D+01  0.242966D+00 -0.152731D-04  0.796825D-01
      2   0.000000D+00  0.199076D+00  0.180834D+00 -0.432218D-05 -0.837331D-01
      3   0.153442D+00 -0.173266D-05  0.179313D-05  0.339237D+00  0.000000D+00
                86            87 
      1  -0.799616D-01  0.000000D+00
      2   0.197286D+00 -0.117860D-05
      3   0.101466D-05  0.338395D+00
 Hessian after L701:
                1             2             3             4             5 
      1  0.106785D+02
      2 -0.423092D+01  0.988847D+01
      3 -0.489247D-04 -0.308999D-04  0.276092D+02
      4 -0.111705D+01  0.685131D+01  0.364440D-04  0.205335D+01
      5  0.741924D+01 -0.819010D+01  0.170716D-04 -0.440937D-01  0.143225D+02
      6  0.375715D-04  0.164338D-04 -0.159316D+02 -0.644642D-04  0.537474D-05
      7 -0.164941D+01  0.344619D+00 -0.773646D-05 -0.589504D+00 -0.681019D+01
      8  0.101333D+00  0.109131D+01  0.000000D+00 -0.671745D+01 -0.519733D+01
      9 -0.771145D-05  0.000000D+00  0.165451D+01  0.310443D-04 -0.198502D-04
     10 -0.111379D+01  0.141197D+01 -0.721158D-05 -0.109224D-01  0.860562D+00
     11  0.149425D+01  0.168036D+00  0.413672D-05  0.870249D+00 -0.445089D+00
     12 -0.762715D-05  0.414988D-05  0.164640D+01 -0.130043D-05  0.209401D-05
     13 -0.684131D+01 -0.253689D+01  0.116907D-05 -0.101619D+00 -0.110414D+01
     14 -0.281101D+01  0.224282D+01  0.181877D-04 -0.747492D+00 -0.850123D+00
     15  0.000000D+00  0.181056D-04 -0.918370D+01 -0.401394D-05 -0.704921D-05
     16  0.113121D+00  0.180881D-02  0.000000D+00  0.207163D-01  0.135207D+00
     17  0.185930D-01 -0.212847D+00  0.000000D+00  0.115156D+00  0.178461D+00
     18  0.000000D+00  0.000000D+00  0.679373D-01  0.000000D+00  0.000000D+00
     19  0.105544D+00 -0.270952D+00  0.000000D+00 -0.112328D+00 -0.272994D+00
     20 -0.289526D+00  0.125254D+00  0.000000D+00 -0.291617D+00  0.568292D+00
     21  0.000000D+00  0.000000D+00 -0.152358D+00  0.000000D+00  0.000000D+00
     22  0.301710D-01 -0.578125D-01  0.000000D+00  0.429853D-01 -0.167690D+00
     23 -0.494058D-01 -0.296149D-01  0.000000D+00 -0.130542D+00  0.665309D-01
     24  0.000000D+00  0.000000D+00 -0.439261D-01  0.000000D+00  0.000000D+00
     25  0.704171D-01 -0.176762D-01  0.000000D+00  0.267969D+00 -0.275434D+00
     26 -0.319331D-01 -0.585447D-01  0.000000D+00 -0.278594D+00  0.784720D-02
     27  0.000000D+00  0.000000D+00 -0.652403D-01  0.103585D-05  0.000000D+00
     28  0.478553D+00  0.543865D-01  0.360418D-05 -0.891213D+00  0.888211D+00
     29 -0.113316D-01 -0.185036D+00  0.000000D+00  0.729028D+00 -0.209740D+00
     30  0.359285D-05  0.000000D+00 -0.124033D+00 -0.131928D-05  0.307059D-05
     31  0.134495D+00  0.111280D+00  0.100291D-05  0.532738D+00  0.331967D-01
     32  0.725131D-01 -0.336236D-01  0.000000D+00  0.193838D+00 -0.297464D+00
     33  0.119777D-05  0.000000D+00 -0.817409D-01  0.564211D-05  0.000000D+00
     34  0.186173D-01 -0.291219D-01  0.000000D+00  0.269996D-02 -0.811860D-01
     35 -0.380420D-01 -0.158172D-01  0.000000D+00 -0.711288D-01  0.455226D-01
     36  0.000000D+00  0.000000D+00 -0.317157D-01  0.000000D+00  0.000000D+00
     37 -0.105075D+01 -0.169381D+01  0.220525D-04 -0.457378D+00 -0.402520D+00
     38 -0.161983D+01 -0.470060D+01 -0.846326D-05 -0.389271D+00  0.112111D+00
     39  0.207052D-04 -0.827809D-05 -0.526613D+01 -0.222443D-05 -0.141662D-05
     40  0.103252D-01  0.224651D-02  0.000000D+00  0.229351D-01 -0.185857D-01
     41 -0.815340D-03 -0.366800D-02  0.000000D+00 -0.473455D-02 -0.314569D-02
     42  0.000000D+00  0.000000D+00 -0.376465D-02  0.000000D+00  0.000000D+00
     43 -0.115039D-02 -0.196137D-02  0.000000D+00 -0.390628D-02  0.173420D-02
     44 -0.566599D-02  0.238464D-02  0.000000D+00 -0.975920D-02  0.219299D-01
     45  0.000000D+00  0.000000D+00 -0.255582D-02  0.000000D+00  0.000000D+00
     46  0.412902D-02 -0.244888D-02  0.000000D+00  0.813694D-02 -0.151270D-01
     47 -0.192693D-02 -0.150150D-02  0.000000D+00 -0.412537D-02  0.966895D-03
     48  0.000000D+00  0.000000D+00 -0.207630D-02  0.000000D+00  0.000000D+00
     49  0.804473D-02  0.397761D-02  0.000000D+00  0.204925D-01 -0.400078D-02
     50  0.312651D-04 -0.851587D-02  0.000000D+00 -0.357152D-02 -0.122132D-01
     51  0.000000D+00  0.000000D+00 -0.654923D-02  0.000000D+00  0.000000D+00
     52  0.606576D-02  0.220787D-02  0.000000D+00  0.140656D-01 -0.604438D-02
     53 -0.205169D-02 -0.780132D-02  0.000000D+00 -0.706744D-02 -0.557602D-02
     54  0.000000D+00  0.000000D+00 -0.476050D-02  0.000000D+00  0.000000D+00
     55  0.819537D-02  0.595845D-03  0.000000D+00  0.172259D-01 -0.128234D-01
     56 -0.267470D-02 -0.628782D-02  0.000000D+00 -0.848726D-02 -0.102993D-01
     57  0.000000D+00  0.000000D+00 -0.718353D-02  0.000000D+00  0.000000D+00
     58  0.134634D-01  0.340444D-02  0.000000D+00  0.305235D-01 -0.295981D-01
     59 -0.153808D-02 -0.528663D-02  0.000000D+00 -0.392776D-02 -0.210152D-01
     60  0.000000D+00  0.000000D+00 -0.775733D-02  0.000000D+00  0.000000D+00
     61  0.130315D-01 -0.523035D-02  0.000000D+00  0.220828D-01 -0.363254D-01
     62 -0.160262D-01 -0.162789D-01  0.000000D+00 -0.424662D-01  0.157320D-01
     63  0.000000D+00  0.000000D+00 -0.132606D-01  0.000000D+00  0.000000D+00
     64  0.233337D-01  0.469221D-02  0.000000D+00  0.569647D-01 -0.346628D-01
     65 -0.689720D-02 -0.197175D-01  0.000000D+00 -0.306379D-01 -0.222620D-01
     66  0.000000D+00  0.000000D+00 -0.168564D-01  0.000000D+00  0.000000D+00
     67  0.192224D-01  0.151872D-01  0.000000D+00  0.528730D-01 -0.171866D-01
     68  0.125593D-02 -0.965118D-02  0.000000D+00 -0.122392D-03 -0.221272D-01
     69  0.000000D+00  0.000000D+00 -0.935616D-02  0.000000D+00  0.000000D+00
     70  0.260895D-01  0.236645D-01  0.000000D+00  0.847202D-01  0.141409D-02
     71  0.662069D-02 -0.180820D-01  0.000000D+00  0.972483D-02 -0.422169D-01
     72  0.000000D+00  0.000000D+00 -0.176821D-01  0.000000D+00  0.000000D+00
     73  0.131157D-02  0.169294D-02  0.000000D+00  0.386958D-02 -0.452959D-02
     74 -0.148845D-02 -0.316052D-02  0.000000D+00 -0.493699D-02  0.455791D-02
     75  0.000000D+00  0.000000D+00 -0.545925D-03  0.000000D+00  0.000000D+00
     76  0.168519D-02  0.306854D-02  0.000000D+00  0.519258D-02 -0.150775D-02
     77  0.177036D-02  0.373853D-02  0.000000D+00  0.591271D-02 -0.412762D-02
     78  0.000000D+00  0.000000D+00 -0.782262D-03  0.000000D+00  0.000000D+00
     79  0.162165D-02  0.373996D-02  0.000000D+00  0.555823D-02 -0.443470D-02
     80  0.000000D+00 -0.269301D-03  0.000000D+00 -0.555320D-04 -0.951596D-03
     81  0.000000D+00  0.000000D+00 -0.520186D-03  0.000000D+00  0.000000D+00
     82  0.463055D-02  0.204999D-02  0.000000D+00  0.927478D-02  0.282806D-02
     83  0.128919D-02 -0.225267D-02  0.000000D+00  0.171532D-02 -0.666343D-02
     84  0.000000D+00  0.000000D+00 -0.265162D-02  0.000000D+00  0.000000D+00
     85  0.286128D-02  0.492342D-02  0.000000D+00  0.955020D-02  0.676210D-03
     86  0.418374D-02  0.665121D-02  0.000000D+00  0.131516D-01 -0.396158D-02
     87  0.000000D+00  0.000000D+00 -0.133169D-02  0.000000D+00  0.000000D+00
                6             7             8             9            10 
      6  0.263536D+02
      7  0.306805D-04  0.167978D+01
      8 -0.188536D-04  0.915636D+00  0.978088D+01
      9 -0.112668D+02 -0.145377D-03 -0.253827D-04  0.266003D+02
     10 -0.109836D-05 -0.545755D+01  0.447627D+01  0.325075D-04  0.100559D+02
     11  0.182807D-05  0.431317D+01  0.307050D+01  0.337298D-04  0.261211D+01
     12  0.648311D+00  0.322435D-04  0.339213D-04 -0.105595D+02 -0.608834D-04
     13 -0.479661D-05 -0.157934D+01 -0.111196D+01 -0.871422D-05  0.416673D+01
     14 -0.668630D-05 -0.113807D+01  0.973390D-01 -0.340989D-05 -0.150449D+01
     15  0.859599D+00 -0.841397D-05 -0.262639D-05  0.919053D+00  0.504285D-04
     16  0.000000D+00  0.244626D+00  0.262712D+00  0.107676D-05 -0.384015D+00
     17  0.000000D+00  0.274435D+00  0.114504D+00  0.000000D+00 -0.194625D+00
     18 -0.392489D-01  0.000000D+00  0.000000D+00 -0.825497D-01 -0.172699D-05
     19  0.000000D+00 -0.107973D+00  0.927832D+00  0.000000D+00 -0.621866D+01
     20  0.000000D+00  0.954607D+00  0.263805D+00  0.141561D-05 -0.794130D+01
     21 -0.194682D+00  0.000000D+00  0.000000D+00  0.426327D+00 -0.363327D-05
     22  0.000000D+00 -0.593622D+00 -0.150119D-01 -0.112905D-05 -0.830047D+00
     23  0.000000D+00  0.124913D-01  0.380619D+00  0.000000D+00  0.853552D+00
     24 -0.844940D-01 -0.101126D-05  0.000000D+00  0.534424D-02  0.000000D+00
     25  0.000000D+00 -0.937543D+00  0.141943D+01 -0.118248D-04 -0.281730D+00
     26  0.000000D+00  0.136461D+01  0.234262D+00  0.545230D-05  0.485285D+00
     27 -0.163127D+00 -0.140363D-04  0.651333D-05  0.110798D+01  0.415199D-05
     28  0.000000D+00  0.727585D+01  0.157124D+01  0.113775D-03 -0.731024D+00
     29  0.206050D-05  0.175426D+01 -0.781034D+01  0.206066D-04 -0.116441D+01
     30  0.159530D+00  0.119156D-03  0.191222D-04 -0.917309D+01 -0.134827D-04
     31  0.512716D-05  0.604114D+00 -0.160061D+01 -0.458391D-05  0.169729D+00
     32  0.124970D-05 -0.173994D+01 -0.188016D+01 -0.141150D-04  0.407166D+00
     33 -0.297151D+00 -0.595456D-05 -0.142543D-04  0.843455D+00  0.242760D-05
     34  0.000000D+00  0.552188D-02 -0.129558D+00  0.000000D+00  0.185459D+00
     35  0.000000D+00 -0.129103D+00  0.799317D-01  0.000000D+00 -0.235351D+00
     36 -0.504606D-01  0.000000D+00  0.000000D+00 -0.976872D-01 -0.145665D-05
     37 -0.280782D-05  0.307319D+00 -0.584134D-01  0.158557D-05  0.771984D-01
     38 -0.147448D-05 -0.726536D-01 -0.509979D-01  0.000000D+00 -0.837769D-01
     39  0.206377D+00  0.153795D-05  0.000000D+00 -0.553940D-01  0.000000D+00
     40  0.000000D+00  0.230451D+00 -0.868435D-01  0.000000D+00  0.368502D-01
     41  0.000000D+00 -0.741583D-01 -0.307898D-01  0.000000D+00  0.333468D-02
     42 -0.651369D-02  0.000000D+00  0.000000D+00 -0.439647D-01  0.000000D+00
     43  0.000000D+00 -0.538832D-02 -0.327945D-02  0.000000D+00 -0.148063D-02
     44  0.000000D+00 -0.155940D-01  0.291916D-01  0.000000D+00 -0.331085D-01
     45 -0.390643D-02  0.000000D+00  0.000000D+00 -0.634947D-02  0.000000D+00
     46  0.000000D+00  0.104408D-01 -0.178353D-01  0.000000D+00  0.117556D-01
     47  0.000000D+00 -0.846816D-02  0.675886D-03  0.000000D+00 -0.146187D-02
     48 -0.337264D-02  0.000000D+00  0.000000D+00 -0.593874D-02  0.000000D+00
     49  0.000000D+00  0.235971D-01  0.432688D-02  0.000000D+00  0.151697D-01
     50  0.000000D+00  0.327001D-02 -0.154524D-01  0.000000D+00  0.642775D-02
     51 -0.131817D-01  0.000000D+00  0.000000D+00 -0.155375D-01  0.000000D+00
     52  0.000000D+00  0.177963D-01 -0.543705D-03  0.000000D+00  0.135410D-01
     53  0.000000D+00 -0.617702D-02 -0.121751D-01  0.000000D+00 -0.145270D-02
     54 -0.899052D-02  0.000000D+00  0.000000D+00 -0.106958D-01  0.000000D+00
     55  0.000000D+00  0.254561D-01 -0.785579D-02  0.000000D+00  0.236254D-01
     56  0.000000D+00 -0.588735D-02 -0.141097D-01  0.000000D+00  0.191073D-02
     57 -0.131272D-01  0.000000D+00  0.000000D+00 -0.167114D-01  0.000000D+00
     58  0.000000D+00  0.476647D-01 -0.202549D-01  0.000000D+00  0.457205D-01
     59  0.000000D+00 -0.475471D-02 -0.247536D-01  0.000000D+00  0.121449D-01
     60 -0.146061D-01  0.000000D+00  0.000000D+00 -0.208924D-01  0.000000D+00
     61  0.000000D+00  0.400402D-01 -0.395572D-01  0.000000D+00  0.551980D-01
     62  0.000000D+00 -0.578476D-01 -0.348381D-02  0.000000D+00 -0.434859D-01
     63 -0.231686D-01  0.000000D+00  0.000000D+00 -0.341435D-01  0.000000D+00
     64  0.000000D+00  0.947587D-01 -0.146287D-01  0.000000D+00  0.710402D-01
     65  0.000000D+00 -0.227190D-01 -0.483746D-01  0.000000D+00  0.963248D-02
     66 -0.355332D-01  0.000000D+00  0.000000D+00 -0.545895D-01  0.000000D+00
     67  0.000000D+00  0.688264D-01  0.138156D-01  0.000000D+00  0.432853D-01
     68  0.000000D+00  0.103769D-01 -0.301007D-01  0.000000D+00  0.154949D-01
     69 -0.204040D-01  0.000000D+00  0.000000D+00 -0.267620D-01  0.000000D+00
     70  0.000000D+00  0.761590D-01  0.424430D-01  0.000000D+00  0.369755D-01
     71  0.000000D+00  0.437115D-01 -0.380559D-01  0.000000D+00  0.341027D-01
     72 -0.429044D-01  0.000000D+00  0.000000D+00 -0.536383D-01  0.000000D+00
     73  0.000000D+00  0.530239D-02 -0.151946D-02  0.000000D+00  0.568542D-02
     74  0.000000D+00 -0.650715D-02  0.999826D-04  0.000000D+00 -0.632382D-02
     75 -0.969367D-03  0.000000D+00  0.000000D+00 -0.119649D-02  0.000000D+00
     76  0.000000D+00  0.567600D-02  0.234783D-02  0.000000D+00  0.444021D-02
     77  0.000000D+00  0.727973D-02  0.980173D-03  0.000000D+00  0.656511D-02
     78 -0.158508D-02  0.000000D+00  0.000000D+00 -0.174505D-02  0.000000D+00
     79  0.000000D+00  0.688839D-02  0.502471D-03  0.000000D+00  0.662760D-02
     80  0.000000D+00  0.298057D-03 -0.834617D-03  0.000000D+00  0.583617D-03
     81 -0.958576D-03  0.000000D+00  0.000000D+00 -0.110072D-02  0.000000D+00
     82  0.000000D+00  0.141950D+00  0.812882D-01  0.000000D+00 -0.741188D-03
     83  0.000000D+00  0.787549D-01  0.737210D-02  0.000000D+00  0.253982D-02
     84 -0.743597D-02  0.000000D+00  0.000000D+00 -0.252728D-01  0.000000D+00
     85  0.000000D+00  0.810464D-02  0.613726D-02  0.000000D+00  0.497934D-02
     86  0.000000D+00  0.145451D-01  0.548220D-02  0.000000D+00  0.101343D-01
     87 -0.320148D-02  0.000000D+00  0.000000D+00 -0.343702D-02  0.000000D+00
               11            12            13            14            15 
     11  0.625281D+01
     12 -0.447456D-04  0.310387D+02
     13 -0.148592D+01  0.510020D-04  0.770810D+01
     14 -0.833290D+01 -0.447003D-05  0.188882D+01  0.109601D+02
     15 -0.436905D-05 -0.105688D+02 -0.461687D-04 -0.116311D-04  0.243783D+02
     16 -0.204602D+00 -0.152313D-05 -0.403689D+01  0.294388D+01  0.249485D-05
     17  0.148981D+00  0.000000D+00  0.272933D+01 -0.262383D+01  0.326237D-05
     18  0.000000D+00  0.179956D+00  0.296181D-05  0.409950D-05 -0.613908D+01
     19 -0.732615D+01 -0.371314D-05 -0.622920D+00  0.647389D+00 -0.120049D-05
     20 -0.130242D+01  0.163455D-04  0.797725D+00 -0.609994D+00  0.000000D+00
     21  0.173918D-04 -0.132499D+02 -0.110891D-05  0.000000D+00  0.133944D+00
     22  0.517822D+00  0.000000D+00  0.331855D+00 -0.159778D+00  0.120848D-05
     23  0.508665D+00  0.000000D+00 -0.987931D-01 -0.115250D+00  0.000000D+00
     24 -0.103324D-05  0.989244D+00  0.108994D-05  0.000000D+00 -0.123607D+00
     25  0.392711D+00  0.343982D-05  0.222416D+00  0.252672D-02  0.117403D-05
[...]
 ,-0.00000017,0.00000002,0.00621721,0.,0.,-0.00000602,-0.00000006,0.,-0
 .00104437,-0.00000001,0.00000001,-0.00052348,0.00000022,0.00000009,-0.
 00988119,0.00000004,-0.00000005,-0.00098444,-0.00000004,0.00000014,0.0
 0315596,-0.00000050,-0.00000055,0.01701781,-0.00000094,-0.00000218,-0.
 06800734,0.00000144,0.00000259,0.03590154,-0.00039311,0.00003242,0.,-0
 .00047442,-0.00010006,0.,-0.00055855,0.00138185,0.,0.00188005,-0.00082
 288,0.,-0.00088045,0.00010741,0.,0.00010912,0.00005494,0.,-0.00219308,
 -0.00218704,-0.00000002,-0.00259931,0.01064351,0.00000008,-0.02780556,
 -0.00495640,0.00000009,0.00005221,-0.00912811,-0.00000003,0.00335137,0
 .00398910,-0.00000001,0.00341240,-0.00231587,-0.00000001,-0.00012514,-
 0.00004109,0.,0.00455330,0.00272053,0.00000001,0.00027828,0.00005732,0
 .,-0.00402355,-0.00064621,-0.00000001,-0.01593613,-0.03964337,0.000000
 04,0.00139042,0.00662622,0.00000003,-0.04246361,0.03452823,-0.00000031
 ,-0.14044946,0.04774495,-0.00000034,0.02177017,0.00015750,0.,0.3354442
 9,0.00021673,0.00040731,0.,-0.00083313,0.00034705,0.,0.00171668,0.0027
 3092,0.00000003,0.00113691,-0.00283673,0.,-0.00006431,0.00015659,0.,0.
 00013074,0.00000039,0.,-0.00397549,0.00245964,0.00000001,0.00633925,-0
 .00602331,-0.00000005,-0.00608129,0.01295705,0.00000003,-0.00457782,-0
 .01211625,-0.00000006,0.00956051,0.00647614,-0.00000009,-0.00666919,0.
 00302485,0.,-0.00002360,0.00001605,0.,0.00409737,-0.01543688,0.0000000
 3,-0.00059264,0.00005708,0.00000001,0.01070389,0.00217802,0.00000007,-
 0.03966588,0.00012536,-0.00000024,-0.00052966,-0.04003065,-0.00000002,
 0.04666076,0.01917496,0.00000029,0.06501945,-0.20038227,0.00000010,0.0
 2263193,-0.07538179,-0.00000008,-0.01720921,0.61614249,0.,0.,0.0000325
 8,0.,0.,0.00000265,0.00000001,0.,-0.00036721,-0.00000001,0.,-0.0000399
 4,0.,0.,0.00007258,0.,0.,-0.00004319,0.00000001,0.00000002,-0.00014765
 ,0.00000002,-0.00000008,-0.00091437,0.00000015,0.00000003,0.00910178,0
 .,0.00000003,-0.00094413,0.00000002,-0.00000002,0.00127818,-0.00000002
 ,0.00000001,0.00121537,0.,0.,-0.00000419,-0.00000013,-0.00000001,-0.01
 413076,0.,0.,-0.00013397,0.00000003,0.00000002,-0.00145546,0.00000006,
 -0.00000013,0.01549271,0.00000004,0.00000013,-0.00263665,-0.00000038,0
 .00000013,0.01455080,-0.00000042,0.00000016,-0.05900159,0.00000005,-0.
 00000025,0.01485053,0.00000091,-0.00000120,0.06619019,0.00020703,0.000
 04032,0.,-0.00023793,0.00015663,0.,0.00095472,0.00110867,0.,0.00001564
 ,-0.00103783,0.,0.00023571,0.00010541,0.,-0.00000564,-0.00002467,0.,-0
 .00069201,0.00063129,0.,0.00063732,-0.00085235,0.,-0.00612721,0.002481
 41,0.00000004,-0.00316010,-0.00559635,-0.00000002,0.00294427,0.0015247
 6,0.00000006,-0.00038524,0.00065980,0.,0.00002920,0.00000653,0.,0.0056
 4093,-0.00503932,-0.00000005,-0.00002931,-0.00005718,0.,0.00005404,0.0
 0024672,0.,-0.20138004,-0.03336708,0.,-0.03893813,0.05374886,-0.000000
 27,-0.03261737,-0.02992594,-0.00000008,0.04376623,0.01361412,0.0000003
 0,-0.00691925,0.00702905,-0.00000004,-0.14013927,-0.07220879,-0.000000
 28,0.62442977,-0.00027601,-0.00036080,0.,0.00103221,-0.00047655,0.,-0.
 00208598,-0.00366809,-0.00000004,-0.00185066,0.00368992,0.,0.00013885,
 -0.00032108,0.,-0.00017140,0.00000116,0.,0.00461116,-0.00171349,0.,-0.
 00449533,0.00123368,0.00000002,0.01130138,-0.00474201,-0.00000004,0.00
 181378,0.01792892,0.00000010,-0.01620928,-0.01215300,0.00000020,0.0042
 7337,-0.00203171,0.,0.00002197,-0.00001943,0.,-0.01742672,-0.00065485,
 0.00000001,0.00033964,-0.00002788,0.,-0.00596285,-0.00149980,-0.000000
 04,0.00083616,-0.11165451,0.00000052,0.04048011,0.03342670,0.00000014,
 -0.02571694,-0.01335202,-0.00000019,0.01267759,-0.08191218,-0.00000010
 ,0.00425693,0.01557059,0.00000018,-0.05376468,-0.23741896,0.00000026,-
 0.08733621,0.69463935,0.,0.,0.00000174,0.,0.,-0.00003740,0.00000001,0.
 00000003,0.00001016,0.00000001,-0.00000002,0.00002716,0.,0.,-0.0000378
 7,0.,0.,0.00002921,-0.00000003,0.,-0.00004885,0.00000003,0.,0.00022562
 ,-0.00000009,0.00000003,-0.00100582,0.,-0.00000013,0.00062278,0.000000
 12,0.00000011,-0.00096044,-0.00000002,0.00000001,-0.00025339,0.,0.,0.0
 0000901,0.00000012,0.,0.00151087,0.,0.,0.00006218,0.00000003,0.0000000
 1,0.00003766,-0.00000039,0.00000017,-0.06946128,-0.00000065,0.00000022
 ,0.00530128,0.00000004,-0.00000009,-0.00677389,0.00000011,0.00000044,-
 0.01330474,-0.00000003,-0.00000004,0.00804716,-0.00000016,0.00000055,-
 0.05598772,0.00000286,-0.00000442,0.17607645,-0.00078412,-0.00038844,0
 .,0.00112053,-0.00041745,0.,-0.00318783,-0.00566519,-0.00000008,-0.001
 20897,0.00410730,-0.00000002,-0.00073470,-0.00050659,0.,-0.00013758,0.
 00007409,0.,0.00315614,-0.00239485,0.,-0.00281717,0.00290521,0.0000000
 3,0.00636539,-0.00622604,-0.00000002,-0.00020230,0.02637342,0.00000024
 ,-0.03837569,-0.02401406,0.00000052,0.00339739,-0.00257385,-0.00000001
 ,-0.00011044,-0.00005354,0.,-0.00762632,-0.00100808,0.00000002,0.00017
 251,0.00006402,0.,-0.00395232,-0.00071058,-0.00000002,-0.04325625,0.04
 769694,-0.00000085,-0.00400493,-0.01502617,0.,0.00555954,0.00947355,0.
 00000002,-0.00672173,-0.01377887,-0.00000006,0.00396263,0.00341371,0.0
 0000002,0.02485394,-0.00287863,0.00000005,-0.23327902,0.11058521,-0.00
 000186,0.67044991,0.00007211,0.00011755,0.,-0.00040832,0.00028039,0.,0
 .00060528,0.00129266,0.,0.00078611,-0.00151557,0.,-0.00009789,0.000138
 65,0.,0.00005993,-0.00000700,0.,-0.00199862,0.00079619,0.,0.00216035,-
 0.00102545,-0.00000001,-0.00279006,0.00152539,0.00000002,0.00099012,-0
 .00392090,-0.00000003,-0.00096758,0.01036545,0.00000004,-0.00233500,0.
 00105364,0.,-0.00001602,0.00000516,0.,0.00550374,-0.00023741,-0.000000
 02,-0.00015289,-0.00001822,0.,0.00328396,0.00072907,0.00000002,0.01100
 950,0.00259574,0.00000027,-0.00750624,-0.00146096,-0.00000008,0.007291
 03,-0.00153323,0.00000004,-0.01256403,0.01448713,0.00000013,0.00021970
 ,-0.00691053,-0.00000005,0.02197876,-0.07950933,0.00000082,0.13335266,
 -0.27365912,0.00000325,0.00709290,0.76641379,0.,0.,0.00001115,0.,0.,0.
 00010586,0.00000001,0.00000007,-0.00057593,0.,-0.00000001,-0.00026076,
 0.00000001,0.,0.00014080,0.,0.,-0.00003872,0.00000001,0.00000001,0.000
 11109,-0.00000002,-0.00000002,-0.00034583,0.00000002,0.00000007,0.0014
 7965,0.00000009,-0.00000024,-0.00040168,0.00000051,0.00000022,0.008644
 15,0.00000002,0.,0.00032608,0.,0.,-0.00001791,-0.00000003,0.00000002,-
 0.00134332,0.,0.,-0.00008408,-0.00000004,0.,-0.00019460,-0.00000051,0.
 00000029,0.01265226,0.00000013,-0.00000015,0.00278964,-0.00000003,0.00
 000013,0.00016854,0.00000004,-0.00000025,0.00514081,0.,0.00000007,-0.0
 0030453,-0.00000011,0.00000061,0.00882260,-0.00000157,0.00000285,-0.05
 332632,-0.00000141,-0.00000754,0.06238647,-0.00000835,-0.00002253,0.,0
 .00000365,-0.00000974,0.,-0.00002416,0.00003598,0.,0.00000403,0.000039
 23,0.,-0.00000293,0.00000863,0.,-0.00000508,-0.00000036,0.,0.00012511,
 -0.00017333,0.,-0.00035328,0.00078327,0.,-0.00082749,-0.00036204,0.,0.
 00005949,-0.00026972,0.,0.00015032,0.00016524,0.,0.00067952,-0.0002500
 9,0.,-0.00000030,-0.00000259,0.,0.00120739,0.00050439,-0.00000001,0.00
 004486,-0.00000188,0.,-0.00092119,-0.00018322,0.,-0.00008242,-0.004674
 86,0.,0.01383266,-0.01670197,0.00000007,-0.16958469,0.15526937,-0.0000
 0051,-0.01172320,0.03788213,-0.00000003,0.00375391,-0.00387283,0.00000
 003,-0.00707388,-0.00087929,-0.00000005,-0.00283096,-0.00317355,0.,0.0
 0096810,0.00009784,0.,0.17177997,-0.00001584,0.00000039,0.,0.00001340,
 -0.00001579,0.,-0.00007365,-0.00006980,0.,0.00000155,0.00007673,0.,-0.
 00001787,-0.00000930,0.,-0.00000041,0.00000361,0.,0.00002718,-0.000074
 15,0.,-0.00004660,0.00017754,0.,-0.00015967,-0.00020413,0.,0.00014063,
 0.00026874,0.,-0.00029291,-0.00019769,0.,0.00010074,-0.00005494,0.,-0.
 00000247,-0.00000069,0.,0.00031745,0.00013936,0.,-0.00001349,0.0000177
 2,0.,0.00008588,-0.00000823,0.,-0.00664260,0.00036311,-0.00000004,0.01
 938621,-0.02099215,0.00000015,0.15356570,-0.29907930,0.00000013,-0.002
 90734,0.00785120,0.00000002,0.00084440,-0.00165987,0.,-0.00268164,0.00
 057329,-0.00000003,0.00160397,0.00082348,0.00000001,-0.00085272,0.0005
 2595,-0.00000001,-0.16297154,0.31181567,0.,0.,0.00000035,0.,0.,-0.0000
 1411,0.,0.,-0.00001080,0.,0.,0.00000653,0.,0.,-0.00001520,0.,0.,0.0000
 1507,0.,0.,-0.00002553,0.,0.,0.00008787,0.,0.,-0.00010187,0.,0.,0.0000
 4444,0.,0.,-0.00000573,0.,0.,-0.00019161,0.,0.,0.00000486,0.,0.,0.0001
 5455,0.,0.,0.00007827,0.,0.,0.00001567,-0.00000005,0.00000006,0.004434
 54,0.00000012,-0.00000014,-0.00480310,-0.00000057,0.00000014,-0.014189
 76,0.00000007,0.00000016,0.00142988,0.00000002,-0.00000003,-0.00302384
 ,-0.00000005,0.00000007,0.00300721,-0.00000001,-0.00000005,-0.00005559
 ,0.,0.,-0.00067127,0.00000048,-0.00000023,0.01420308,-0.00001557,0.000
 00754,0.,-0.00003598,0.00000686,0.,0.00000392,0.00010633,0.,0.00010919
 ,-0.00009957,0.,-0.00004229,0.00001160,0.,0.00000787,0.00000295,0.,-0.
 00019211,-0.00003071,0.,0.00012159,0.00030320,0.,-0.00095328,0.0001083
 1,0.,0.00002292,-0.00059933,0.,0.00034892,0.00030652,0.,0.00001546,-0.
 00005867,0.,-0.00000638,-0.00000152,0.,0.00147129,-0.00007602,0.,-0.00
 001238,0.00000506,0.,-0.00000776,0.00009784,0.,-0.10468281,-0.10726446
 ,0.00000129,0.01080617,0.01937197,-0.00000016,-0.00119456,0.00408086,-
 0.00000002,-0.00277351,0.00216646,-0.00000001,0.00083362,-0.00035639,0
 .,-0.00600891,-0.00095749,-0.00000003,-0.00620440,-0.02956170,0.000000
 30,0.00124525,-0.00003520,0.,0.00054871,0.00096540,0.00000002,0.107538
 66,-0.00001176,0.00000544,0.,-0.00001384,0.00000200,0.,-0.00002208,0.0
 0002121,0.,0.00006168,-0.00003354,0.,-0.00003016,0.00000254,0.,0.00000
 491,0.00000157,0.,-0.00010258,-0.00000942,0.,0.00008323,0.00007290,0.,
 -0.00022412,-0.00001254,0.,0.00005593,-0.00016036,0.,-0.00002248,0.000
 08292,0.,-0.00008704,0.00000452,0.,-0.00000418,-0.00000053,0.,0.000317
 71,0.00003844,0.,-0.00000863,0.00000364,0.,0.00013714,0.00004513,0.,-0
 .10389393,-0.28381653,0.00000346,-0.01478119,-0.02007257,0.00000010,0.
 00428822,-0.00053932,0.00000018,0.00037701,0.00090902,0.,-0.00015706,-
 0.00016049,-0.00000001,0.00045779,0.00166033,0.00000007,0.00405174,-0.
 00115505,-0.00000002,-0.00003886,0.00122779,-0.00000004,-0.00084315,-0
 .00056062,0.00000002,0.11034073,0.30157374,0.,0.,-0.00000005,0.,0.,-0.
 00000573,0.,0.,-0.00000171,0.,0.,0.00000274,0.,0.,-0.00000539,0.,0.,0.
 00000542,0.,0.,-0.00001117,0.,0.,0.00002219,0.,0.,-0.00005514,0.,0.,0.
 00002545,0.,0.,-0.00004037,0.,0.,-0.00000796,0.,0.,0.00000190,0.,0.,0.
 00008632,0.,0.,0.00000957,0.,0.,-0.00002671,0.00000137,0.00000379,-0.0
 2513207,0.00000022,0.00000014,-0.00070790,-0.00000006,-0.00000002,0.00
 786798,-0.00000004,0.00000002,-0.00034115,0.00000002,0.,-0.00049096,-0
 .00000009,-0.00000007,0.00326253,-0.00000010,-0.00000007,-0.00030492,0
 .00000004,-0.00000006,-0.00153499,0.00000001,0.,0.00177749,-0.00000136
 ,-0.00000368,0.02009255,-0.00001544,0.00000857,0.,-0.00000771,0.000001
 65,0.,-0.00003330,-0.00002404,0.,0.00004843,-0.00001850,0.,-0.00003380
 ,-0.00000244,0.,0.00000478,0.00000259,0.,-0.00011775,0.00001418,0.,0.0
 0012740,-0.00009353,0.,-0.00009292,-0.00000777,0.,0.00006464,0.0000824
 9,0.,-0.00020136,-0.00009626,0.,-0.00024968,0.00004667,0.,-0.00000465,
 -0.00000024,0.,0.00015062,0.00000260,0.,-0.00002737,0.00000910,0.,0.00
 039850,0.00006689,0.,-0.01155918,-0.00373339,0.00000004,-0.32903206,-0
 .00470381,0.00000001,-0.01194455,-0.00025436,0.,0.00502840,-0.00067767
 ,0.00000004,-0.00111317,-0.00063702,-0.00000001,0.00030119,0.00048906,
 0.,0.00089094,0.00251532,-0.00000004,-0.00098027,-0.00021517,0.,0.0006
 5605,-0.00076733,0.,0.00067203,0.00050630,0.,0.34674723,0.00000598,0.0
 0001651,0.,-0.00002276,0.00001025,0.,0.00004490,0.00006340,0.,0.000036
 52,-0.00008233,0.,-0.00000378,0.00000358,0.,0.00000459,0.00000074,0.,-
 0.00014024,0.00007811,0.,0.00014613,-0.00026040,0.,-0.00001010,0.00013
 278,0.,-0.00002941,-0.00026053,0.,0.00028343,0.00022216,0.,-0.00038064
 ,0.00011149,0.,-0.00000026,0.00000139,0.,-0.00003933,-0.00002003,0.,-0
 .00004279,0.00000763,0.,0.00059772,0.00008408,0.,0.02680184,0.00601888
 ,0.,0.00044702,-0.05595368,0.00000006,-0.03824641,-0.00322032,-0.00000
 007,0.00477209,-0.00447508,0.00000004,-0.00253458,-0.00106808,-0.00000
 003,-0.00049828,0.00140995,-0.00000001,0.00082981,-0.00548073,0.000000
 10,0.00168197,0.00098682,-0.00000002,-0.00035945,0.00030772,0.,-0.0001
 7346,0.00040627,-0.00000003,0.00729713,0.06127798,0.,0.,0.00000089,0.,
 0.,-0.00000531,0.,0.,-0.00001775,0.,0.,0.00000018,0.,0.,-0.00000109,0.
 ,0.,0.00000434,0.,0.,-0.00001529,0.,0.,0.00000916,0.,0.,0.00008086,0.,
 0.,0.00001506,0.,0.,0.00005526,0.,0.,-0.00000243,0.,0.,0.00000151,-0.0
 0000001,0.,-0.00018318,0.,0.,0.00001042,0.,0.,-0.00002036,-0.00000023,
 0.,0.00670858,0.00000048,0.00000016,-0.03811814,-0.00000016,-0.0000001
 5,0.00321855,0.00000004,-0.00000008,0.00455823,0.,0.00000002,-0.000179
 71,0.00000003,0.00000005,-0.00175737,-0.00000012,0.00000014,0.00988410
 ,0.00000001,-0.00000001,-0.00089548,0.,0.,-0.00210135,0.,-0.00000008,-
 0.00506966,-0.00000005,-0.00000005,0.02418747,0.00161824,0.00076283,0.
 ,-0.00191696,0.00077881,0.,0.00620580,0.00914923,0.00000012,0.00112716
 ,-0.00654970,0.00000003,0.00142670,0.00042554,0.,0.00015893,-0.0001429
 9,0.,-0.00416344,0.00409696,0.00000001,0.00370076,-0.00508265,-0.00000
 006,-0.00661225,0.01146673,0.00000004,-0.00626555,-0.03891045,-0.00000
 031,0.01328413,0.02627539,-0.00000032,-0.00465326,0.00407880,0.0000000
 3,0.00022182,0.00009721,0.,0.01097584,-0.00000909,-0.00000002,-0.00024
 406,-0.00009187,0.,0.00521915,0.00090192,0.00000003,0.00777113,-0.0054
 8634,0.00000012,0.00052021,0.00549254,0.00000004,-0.00134517,-0.005154
 69,-0.00000002,-0.00105009,0.01029396,-0.00000004,-0.00336112,-0.00644
 462,-0.00000003,-0.00410285,-0.01567643,0.00000003,-0.01643393,0.02718
 282,-0.00000010,-0.25104315,-0.03440337,0.00000158,-0.00037003,0.00050
 268,0.,-0.00032776,-0.00011622,0.,0.00030259,-0.00033490,-0.00000002,0
 .24214494,0.00022321,0.00013164,0.,-0.00018982,0.00008109,0.,0.0011990
 2,0.00068620,0.00000002,-0.00028859,-0.00065629,0.,0.00036663,0.000013
 14,0.,0.00000895,-0.00001355,0.,-0.00003380,0.00063953,0.,0.00000302,-
 0.00160800,-0.00000002,-0.00200810,0.00249840,0.,-0.01156280,-0.011987
 53,0.00000005,0.01448149,-0.00629958,-0.00000020,-0.00063359,0.0008811
 8,0.,0.00005778,0.00002149,0.,0.00068957,-0.00248465,0.00000001,-0.000
 04919,0.00001037,0.,0.00088329,0.00004806,0.,0.00176982,-0.00504572,0.
 00000013,0.00134814,0.00211555,0.00000003,-0.00116965,-0.00074706,0.,-
 0.00005164,0.00131764,-0.00000002,-0.00079290,-0.00090099,0.,-0.000731
 12,-0.00037167,-0.00000003,0.03083095,0.01101802,-0.00000023,-0.021103
 59,-0.08126255,0.00000071,-0.00026364,0.00010366,0.,0.00013662,0.00009
 062,0.,0.00022141,-0.00042501,-0.00000001,0.01431445,0.09103060,0.,0.,
 -0.00003109,0.00000001,0.,-0.00014726,-0.00000003,-0.00000016,0.001528
 76,-0.00000004,0.00000004,0.00076710,-0.00000002,-0.00000002,-0.000295
 47,0.,0.,-0.00000936,0.00000002,-0.00000003,-0.00014703,0.,0.00000006,
 0.00017615,0.00000007,-0.00000017,-0.00186322,-0.00000017,0.00000047,0
 .00029990,-0.00000009,-0.00000029,-0.01329761,0.00000004,-0.00000005,-
 0.00024099,0.,0.,0.00001502,-0.00000010,0.,0.00116333,0.,0.,0.00006128
 ,-0.00000004,0.,0.00015032,-0.00000008,0.00000026,0.00491616,-0.000000
 08,-0.00000004,0.00156782,0.00000003,0.00000001,0.00006919,-0.00000002
 ,-0.00000005,-0.00155886,0.00000003,0.00000005,0.00042234,0.00000007,0
 .00000005,-0.00394125,-0.00000094,-0.00000011,0.00286079,0.00000255,0.
 00000066,-0.03169458,0.,0.,-0.00000584,0.,0.,-0.00038392,-0.00000001,0
 .00000002,-0.00065518,-0.00000118,-0.00000062,0.03977220,-0.00011215,-
 0.00006068,0.,0.00009939,0.00002493,0.,-0.00037959,-0.00055866,-0.0000
 0001,-0.00000278,0.00023692,0.,-0.00010619,-0.00000167,0.,-0.00001346,
 0.00000773,0.,0.00007112,-0.00018604,0.,-0.00006895,0.00037210,0.,0.00
 050595,-0.00060182,0.,0.00062396,0.00253425,0.00000002,-0.00542106,-0.
 00036107,0.00000007,0.00017932,-0.00020027,0.,-0.00001756,-0.00000745,
 0.,-0.00035080,0.00022004,0.,0.00001257,-0.00000392,0.,-0.00024003,-0.
 00003617,0.,0.00030180,0.00163953,0.,0.00015881,0.00000441,0.00000001,
 -0.00058874,-0.00031902,0.,0.00190072,-0.00005648,0.,-0.00024640,0.000
 52005,0.,-0.00216944,0.00411958,-0.00000005,0.00957402,0.02596478,-0.0
 0000025,-0.12282853,-0.13101357,0.00000127,-0.00000580,-0.00010912,0.,
 -0.00128791,-0.00032509,0.,0.00002038,-0.00013275,0.,0.00721222,-0.027
 65593,-0.00000003,0.11317913,-0.00000019,0.00000036,0.,0.00002667,-0.0
 0002129,0.,-0.00004685,-0.00010778,0.,-0.00008645,0.00013445,0.,0.0000
 1215,-0.00002835,0.,-0.00000641,0.00000104,0.,0.00017868,-0.00008340,0
 .,-0.00021114,0.00010593,0.,0.00017455,-0.00013529,0.,-0.00005872,0.00
 066162,0.,-0.00003739,-0.00060192,0.,0.00021152,-0.00012771,0.,0.00000
 232,0.00000053,0.,-0.00006242,0.00006295,0.,0.00000513,0.00000069,0.,-
 0.00026461,-0.00003998,0.,-0.00163734,0.00180895,-0.00000004,-0.000106
 95,-0.00149457,-0.00000002,0.00083604,0.00133400,0.,-0.00131637,-0.000
 91871,0.00000007,0.00058782,0.00019077,-0.00000002,0.00424543,-0.00038
 965,0.00000009,-0.01657700,-0.02603058,0.,-0.11583081,-0.35148111,0.00
 000321,0.00022969,-0.00012148,0.,0.00119628,0.00037289,0.,-0.00003243,
 0.00010646,0.,0.00258345,0.00111541,-0.00000005,0.12598537,0.37568576,
 0.,0.,-0.00000205,0.,0.,-0.00004810,0.,0.,0.00002019,0.,0.,0.00002744,
 0.,0.,-0.00002445,0.,0.,0.00002186,0.,0.,-0.00003267,0.,0.,0.00007919,
 0.,-0.00000001,-0.00016577,0.,0.00000002,0.00008869,-0.00000002,-0.000
 00003,-0.00061727,0.,0.,-0.00009827,0.,0.,0.00000908,0.,0.,-0.00001070
 ,0.,0.,0.00002841,0.,0.,0.00008582,0.00000003,-0.00000009,-0.00345797,
 0.00000002,0.,-0.00105866,0.,-0.00000001,-0.00015816,0.,0.00000003,0.0
 0460439,0.,0.,-0.00112811,-0.00000009,-0.00000008,0.00362576,0.0000002
 1,0.00000067,-0.00314796,0.00000083,0.00000256,-0.01108907,0.,0.,-0.00
 004419,-0.00000001,0.,0.00096568,0.,0.,0.00028770,0.00000008,0.0000001
 8,0.00050133,-0.00000105,-0.00000324,0.01073785\\-0.00000062,-0.000000
 40,-0.00000037,0.00000042,0.00000048,0.00000030,0.00000066,-0.00000032
 ,0.00000041,-0.00000043,-0.00000049,-0.00000020,-0.00000105,-0.0000005
 9,0.00000024,0.00000065,0.00000069,-0.00000004,0.00000045,0.00000056,0
 .00000026,-0.00000035,-0.00000095,-0.00000083,-0.00000109,0.00000068,0
 .00000019,-0.00000028,-0.00000141,-0.00000065,0.00000054,0.00000064,-0
 .00000002,0.00000153,0.00000041,0.00000005,0.00000027,-0.00000016,0.00
 000005,0.00000062,0.00000065,0.00000017,-0.00000004,-0.00000017,0.0000
 0008,-0.00000048,0.00000061,0.00000032,0.00000021,0.00000055,0.0000002
 8,0.00000044,-0.00000040,-0.00000141,0.00000058,-0.00000036,0.00000075
 ,-0.00000010,-0.00000084,-0.00000035,-0.00000119,-0.00000095,0.0000001
 1,-0.00000020,-0.00000007,0.00000057,0.00000067,-0.00000051,-0.0000015
 4,0.00000119,0.00000102,0.00000059,-0.00000077,0.00000103,0.00000012,-
 0.00000005,0.00000022,0.00000052,0.00000020,0.00000020,0.00000024,-0.0
 0000160,-0.00000009,-0.00000006,-0.00000018,-0.00000004,0.00000021\\\@


 IF YOU WISH TO UNDERSTAND THE FRAGRANCE OF THE ROSE, 
 OR THE TENACITY OF THE OAK; 
 IF YOU ARE NOT SATISFIED UNTIL YOU KNOW THE SECRET PATHS 
 BY WHICH THE SUNSHINE AND THE AIR ACHIEVE THESE WONDERS; 
 IF YOU WISH TO SEE THE PATTERN WHICH UNDERLIES ONE LARGE FIELD OF 
 HUMAN EXPERIENCE AND HUMAN MEASUREMENT, THEN TAKE UP CHEMISTRY.

                                         -- C. A. COULSON, 1973.
 Job cpu time:       0 days  0 hours 17 minutes 22.9 seconds.
 Elapsed time:       0 days  0 hours 17 minutes 22.7 seconds.
 File lengths (MBytes):  RWF=    161 Int=      0 D2E=      0 Chk=      5 Scr=      1
 Normal termination of Gaussian 16 at Thu Oct 26 08:24:21 2023.
E TWA DOGS')
 Job cpu time:       0 days  0 hours 17 minutes  7.7 seconds.
 Elapsed time:       0 days  0 hours 17 minutes  7.6 seconds.
 File lengths (MBytes):  RWF=    161 Int=      0 D2E=      0 Chk=      5 Scr=      1
 Normal termination of Gaussian 16 at Thu Oct 26 08:24:07 2023.
