 Entering Gaussian System, Link 0=g16
 Input=dist.com
 Output=dist.log
 Initial command:
 /opt/gaussian/g16/l1.exe "/mnt/scratch/hwang/Gau-916230.inp" -scrdir="/mnt/scratch/hwang/"
 Entering Link 1 = /opt/gaussian/g16/l1.exe PID=    916235.
  
 Copyright (c) 1988-2019, Gaussian, Inc.  All Rights Reserved.
  
 This is part of the Gaussian(R) 16 program.  It is based on
 the Gaussian(R) 09 system (copyright 2009, Gaussian, Inc.),
 the Gaussian(R) 03 system (copyright 2003, Gaussian, Inc.),
 the Gaussian(R) 98 system (copyright 1998, Gaussian, Inc.),
 the Gaussian(R) 94 system (copyright 1995, Gaussian, Inc.),
 the Gaussian 92(TM) system (copyright 1992, Gaussian, Inc.),
 the Gaussian 90(TM) system (copyright 1990, Gaussian, Inc.),
 the Gaussian 88(TM) system (copyright 1988, Gaussian, Inc.),
 the Gaussian 86(TM) system (copyright 1986, Carnegie Mellon
 University), and the Gaussian 82(TM) system (copyright 1983,
 Carnegie Mellon University). Gaussian is a federally registered
 trademark of Gaussian, Inc.
  
 This software contains proprietary and confidential information,
 including trade secrets, belonging to Gaussian, Inc.
  
 This software is provided under written license and may be
 used, copied, transmitted, or stored only in accord with that
 written license.
  
 The following legend is applicable only to US Government
 contracts under FAR:
  
                    RESTRICTED RIGHTS LEGEND
  
 Use, reproduction and disclosure by the US Government is
 subject to restrictions as set forth in subparagraphs (a)
 and (c) of the Commercial Computer Software - Restricted
 Rights clause in FAR 52.227-19.
  
 Gaussian, Inc.
 340 Quinnipiac St., Bldg. 40, Wallingford CT 06492
  
  
 ---------------------------------------------------------------
 Warning -- This program may not be used in any manner that
 competes with the business of Gaussian, Inc. or will provide
 assistance to any competitor of Gaussian, Inc.  The licensee
 of this program is prohibited from giving any competitor of
 Gaussian, Inc. access to this program.  By using this program,
 the user acknowledges that Gaussian, Inc. is engaged in the
 business of creating and licensing software in the field of
 computational chemistry and represents and warrants to the
 licensee that it is not a competitor of Gaussian, Inc. and that
 it will not use this program in any manner prohibited above.
 ---------------------------------------------------------------
  

 Cite this work as:
 Gaussian 16, Revision C.01,
 M. J. Frisch, G. W. Trucks, H. B. Schlegel, G. E. Scuseria, 
 M. A. Robb, J. R. Cheeseman, G. Scalmani, V. Barone, 
 G. A. Petersson, H. Nakatsuji, X. Li, M. Caricato, A. V. Marenich, 
 J. Bloino, B. G. Janesko, R. Gomperts, B. Mennucci, H. P. Hratchian, 
 J. V. Ortiz, A. F. Izmaylov, J. L. Sonnenberg, D. Williams-Young, 
 F. Ding, F. Lipparini, F. Egidi, J. Goings, B. Peng, A. Petrone, 
 T. Henderson, D. Ranasinghe, V. G. Zakrzewski, J. Gao, N. Rega, 
 G. Zheng, W. Liang, M. Hada, M. Ehara, K. Toyota, R. Fukuda, 
 J. Hasegawa, M. Ishida, T. Nakajima, Y. Honda, O. Kitao, H. Nakai, 
 T. Vreven, K. Throssell, J. A. Montgomery, Jr., J. E. Peralta, 
 F. Ogliaro, M. J. Bearpark, J. J. Heyd, E. N. Brothers, K. N. Kudin, 
 V. N. Staroverov, T. A. Keith, R. Kobayashi, J. Normand, 
 K. Raghavachari, A. P. Rendell, J. C. Burant, S. S. Iyengar, 
 J. Tomasi, M. Cossi, J. M. Millam, M. Klene, C. Adamo, R. Cammi, 
 J. W. Ochterski, R. L. Martin, K. Morokuma, O. Farkas, 
 J. B. Foresman, and D. J. Fox, Gaussian, Inc., Wallingford CT, 2019.
 
 ******************************************
 Gaussian 16:  ES64L-G16RevC.01  3-Jul-2019
                26-Oct-2023 
 ******************************************
 %mem=6GB
 ----------------------------------------------------------------------
 #P blyp/4-21G EmpiricalDispersion(GD3) scf(qc) opt(tight,maxcycle=100)
  opt=ModRedundant
 ----------------------------------------------------------------------
 1/6=100,7=10,18=120,38=1,172=1/1,7;
 2/12=2,17=6,18=5,40=1/2;
 3/5=5,6=4,11=2,25=1,30=1,74=402,124=31/1,2,3;
 4//1;
 5/5=2,8=3,38=5/8;
 6/7=2,8=2,9=2,10=2,28=1/1;
 1/6=100,7=10,18=120/7,1;
 2/12=2,17=6,18=5,40=1/2;
 3/5=5,6=4,11=2,25=1,30=1,74=402,124=31/1,2,3;
 4/5=5,16=3,69=1/1;
 5/5=2,8=3,38=5/8;
 6/7=2,8=2,9=2,10=2,28=1/1;
 1/6=100,7=10/7(1);
 99/9=1/99;
 3/5=5,6=4,11=2,25=1,30=1,74=402,124=31/1,2,3;
 4/5=5,16=3,69=1/1;
 5/5=2,8=3,38=5/8;
 6/7=2,8=2,9=2,10=2,28=1/1;
 1/6=100,7=10/7(-4);
 99/9=1/99;
 Leave Link    1 at Thu Oct 26 08:24:45 2023, MaxMem=   805306368 cpu:               0.0 elap:               0.0
 (Enter /opt/gaussian/g16/l101.exe)
 ------------------------------
 Gaussian input prepared by ASE
 ------------------------------
 Symbolic Z-matrix:
 Charge =  0 Multiplicity = 1
 C                     4.99881  -0.86854   0. 
 N                     3.90743  -1.64214   0. 
 C                     2.82209  -0.72709  0. 
 C                     3.28738   0.61342   0. 
 N                     4.67999   0.51522   0.00001 
 H                     5.32034   1.31099   0.00001 
 N                     2.56223   1.76838   0. 
 C                     1.22231   1.53965   0. 
 N                     0.66349   0.25882  -0.00001 
 C                     1.40704  -0.96388  -0.00001 
 O                     0.80217  -2.09024  -0.00002 
 N                     0.36456   2.59655   0.00001 
 H                     6.02512  -1.21696   0.00001 
 H                    -0.39538   0.15451  0. 
 H                     0.79168   3.52358   0.00002 
 H                    -0.67342   2.4929    0.00002 
 C                    -4.16165  -1.47379  0. 
 C                    -4.93204  -0.34243  -0.00002 
 N                    -4.34225   0.90586  -0.00001 
 C                    -2.90834   1.08047  0. 
 O                    -2.45108   2.26249   0. 
 N                    -2.14313  -0.06712   0. 
 C                    -2.71411  -1.31197   0. 
 N                    -1.88833  -2.37544   0.00002 
 H                    -4.89753   1.76649  -0.00001 
 H                    -4.61503  -2.46197   0.00001 
 H                    -6.02121  -0.37269  -0.00001 
 H                    -0.82181  -2.24987   0.00001 
 H                    -2.27836  -3.321     0.00003 
 
 Add virtual bond connecting atoms N22        and H14        Dist= 3.33D+00.
 Add virtual bond connecting atoms H28        and O11        Dist= 3.08D+00.
 The following ModRedundant input section has been read:
 
 ITRead=  0  0  0  0  0  0  0  0  0  0  0  0  0  0  0  0  0  0  0  0
 ITRead=  0  0  0  0  0  0  0  0  0
 MicOpt= -1 -1 -1 -1 -1 -1 -1 -1 -1 -1 -1 -1 -1 -1 -1 -1 -1 -1 -1 -1
 MicOpt= -1 -1 -1 -1 -1 -1 -1 -1 -1
                           ----------------------------
                           !    Current Parameters    !
                           ! (Angstroms and Degrees)  !
 --------------------------                            --------------------------
 ! Name  Definition              Value          Derivative Info.                !
 --------------------------------------------------------------------------------
 ! R1    R(1,2)                  1.3377         estimate D2E/DX2                !
 ! R2    R(1,5)                  1.42           estimate D2E/DX2                !
 ! R3    R(1,13)                 1.0838         estimate D2E/DX2                !
 ! R4    R(2,3)                  1.4196         estimate D2E/DX2                !
 ! R5    R(3,4)                  1.419          estimate D2E/DX2                !
 ! R6    R(3,10)                 1.4347         estimate D2E/DX2                !
 ! R7    R(4,5)                  1.3961         estimate D2E/DX2                !
 ! R8    R(4,7)                  1.3637         estimate D2E/DX2                !
 ! R9    R(5,6)                  1.0214         estimate D2E/DX2                !
 ! R10   R(7,8)                  1.3593         estimate D2E/DX2                !
 ! R11   R(8,9)                  1.3974         estimate D2E/DX2                !
 ! R12   R(8,12)                 1.3612         estimate D2E/DX2                !
 ! R13   R(9,10)                 1.431          estimate D2E/DX2                !
 ! R14   R(9,14)                 1.064          estimate D2E/DX2                !
 ! R15   R(10,11)                1.2785         estimate D2E/DX2                !
 ! R16   R(11,28)                1.6318         estimate D2E/DX2                !
 ! R17   R(12,15)                1.0207         estimate D2E/DX2                !
 ! R18   R(12,16)                1.0431         estimate D2E/DX2                !
 ! R19   R(14,22)                1.7617         estimate D2E/DX2                !
 ! R20   R(17,18)                1.3688         estimate D2E/DX2                !
 ! R21   R(17,23)                1.4566         estimate D2E/DX2                !
 ! R22   R(17,26)                1.0872         estimate D2E/DX2                !
 ! R23   R(18,19)                1.3806         estimate D2E/DX2                !
 ! R24   R(18,27)                1.0896         estimate D2E/DX2                !
 ! R25   R(19,20)                1.4445         estimate D2E/DX2                !
 ! R26   R(19,25)                1.0242         estimate D2E/DX2                !
 ! R27   R(20,21)                1.2674         estimate D2E/DX2                !
 ! R28   R(20,22)                1.3793         estimate D2E/DX2                !
 ! R29   R(22,23)                1.3695         estimate D2E/DX2                !
 ! R30   R(23,24)                1.3464         estimate D2E/DX2                !
 ! R31   R(24,28)                1.0739         estimate D2E/DX2                !
 ! R32   R(24,29)                1.0228         estimate D2E/DX2                !
 ! A1    A(2,1,5)              112.3558         estimate D2E/DX2                !
 ! A2    A(2,1,13)             125.9181         estimate D2E/DX2                !
 ! A3    A(5,1,13)             121.7261         estimate D2E/DX2                !
 ! A4    A(1,2,3)              104.5359         estimate D2E/DX2                !
 ! A5    A(2,3,4)              110.9923         estimate D2E/DX2                !
 ! A6    A(2,3,10)             130.3664         estimate D2E/DX2                !
 ! A7    A(4,3,10)             118.6413         estimate D2E/DX2                !
 ! A8    A(3,4,5)              105.1084         estimate D2E/DX2                !
 ! A9    A(3,4,7)              128.7354         estimate D2E/DX2                !
 ! A10   A(5,4,7)              126.1562         estimate D2E/DX2                !
 ! A11   A(1,5,4)              107.0076         estimate D2E/DX2                !
 ! A12   A(1,5,6)              128.2022         estimate D2E/DX2                !
 ! A13   A(4,5,6)              124.7902         estimate D2E/DX2                !
 ! A14   A(4,7,8)              112.4356         estimate D2E/DX2                !
 ! A15   A(7,8,9)              123.2586         estimate D2E/DX2                !
 ! A16   A(7,8,12)             119.3743         estimate D2E/DX2                !
 ! A17   A(9,8,12)             117.3671         estimate D2E/DX2                !
 ! A18   A(8,9,10)             125.124          estimate D2E/DX2                !
 ! A19   A(8,9,14)             119.1971         estimate D2E/DX2                !
 ! A20   A(10,9,14)            115.6789         estimate D2E/DX2                !
 ! A21   A(3,10,9)             111.8052         estimate D2E/DX2                !
 ! A22   A(3,10,11)            127.7359         estimate D2E/DX2                !
 ! A23   A(9,10,11)            120.4589         estimate D2E/DX2                !
 ! A24   A(10,11,28)           123.8501         estimate D2E/DX2                !
 ! A25   A(8,12,15)            116.201          estimate D2E/DX2                !
 ! A26   A(8,12,16)            123.3587         estimate D2E/DX2                !
 ! A27   A(15,12,16)           120.4404         estimate D2E/DX2                !
 ! A28   A(18,17,23)           117.8738         estimate D2E/DX2                !
 ! A29   A(18,17,26)           121.1017         estimate D2E/DX2                !
 ! A30   A(23,17,26)           121.0245         estimate D2E/DX2                !
 ! A31   A(17,18,19)           120.4574         estimate D2E/DX2                !
 ! A32   A(17,18,27)           122.6611         estimate D2E/DX2                !
 ! A33   A(19,18,27)           116.8815         estimate D2E/DX2                !
 ! A34   A(18,19,20)           122.233          estimate D2E/DX2                !
 ! A35   A(18,19,25)           121.8799         estimate D2E/DX2                !
 ! A36   A(20,19,25)           115.8871         estimate D2E/DX2                !
 ! A37   A(19,20,21)           118.0918         estimate D2E/DX2                !
 ! A38   A(19,20,22)           116.7523         estimate D2E/DX2                !
 ! A39   A(21,20,22)           125.1559         estimate D2E/DX2                !
 ! A40   A(14,22,20)           116.4682         estimate D2E/DX2                !
 ! A41   A(14,22,23)           121.8667         estimate D2E/DX2                !
 ! A42   A(20,22,23)           121.6651         estimate D2E/DX2                !
 ! A43   A(17,23,22)           121.0184         estimate D2E/DX2                !
 ! A44   A(17,23,24)           121.4504         estimate D2E/DX2                !
 ! A45   A(22,23,24)           117.5312         estimate D2E/DX2                !
 ! A46   A(23,24,28)           121.1143         estimate D2E/DX2                !
 ! A47   A(23,24,29)           119.7551         estimate D2E/DX2                !
 ! A48   A(28,24,29)           119.1306         estimate D2E/DX2                !
 ! A49   L(9,14,22,11,-1)      178.3988         estimate D2E/DX2                !
 ! A50   L(11,28,24,12,-1)     181.1011         estimate D2E/DX2                !
 ! A51   L(9,14,22,11,-2)      180.0001         estimate D2E/DX2                !
 ! A52   L(11,28,24,12,-2)     179.9996         estimate D2E/DX2                !
 ! D1    D(5,1,2,3)              0.0001         estimate D2E/DX2                !
 ! D2    D(13,1,2,3)           179.9999         estimate D2E/DX2                !
 ! D3    D(2,1,5,4)             -0.0001         estimate D2E/DX2                !
 ! D4    D(2,1,5,6)           -179.9999         estimate D2E/DX2                !
 ! D5    D(13,1,5,4)          -179.9999         estimate D2E/DX2                !
 ! D6    D(13,1,5,6)             0.0004         estimate D2E/DX2                !
 ! D7    D(1,2,3,4)             -0.0001         estimate D2E/DX2                !
 ! D8    D(1,2,3,10)           179.9997         estimate D2E/DX2                !
 ! D9    D(2,3,4,5)              0.0            estimate D2E/DX2                !
 ! D10   D(2,3,4,7)           -179.9998         estimate D2E/DX2                !
 ! D11   D(10,3,4,5)          -179.9998         estimate D2E/DX2                !
 ! D12   D(10,3,4,7)             0.0004         estimate D2E/DX2                !
 ! D13   D(2,3,10,9)           179.9998         estimate D2E/DX2                !
 ! D14   D(2,3,10,11)            0.0001         estimate D2E/DX2                !
 ! D15   D(4,3,10,9)            -0.0004         estimate D2E/DX2                !
 ! D16   D(4,3,10,11)          179.9999         estimate D2E/DX2                !
 ! D17   D(3,4,5,1)              0.0001         estimate D2E/DX2                !
 ! D18   D(3,4,5,6)            179.9999         estimate D2E/DX2                !
 ! D19   D(7,4,5,1)            179.9999         estimate D2E/DX2                !
 ! D20   D(7,4,5,6)             -0.0003         estimate D2E/DX2                !
 ! D21   D(3,4,7,8)             -0.0001         estimate D2E/DX2                !
 ! D22   D(5,4,7,8)           -179.9999         estimate D2E/DX2                !
 ! D23   D(4,7,8,9)             -0.0001         estimate D2E/DX2                !
 ! D24   D(4,7,8,12)           179.9995         estimate D2E/DX2                !
 ! D25   D(7,8,9,10)            -0.0001         estimate D2E/DX2                !
 ! D26   D(7,8,9,14)           179.9996         estimate D2E/DX2                !
 ! D27   D(12,8,9,10)         -179.9996         estimate D2E/DX2                !
 ! D28   D(12,8,9,14)            0.0001         estimate D2E/DX2                !
 ! D29   D(7,8,12,15)            0.0            estimate D2E/DX2                !
 ! D30   D(7,8,12,16)         -179.9996         estimate D2E/DX2                !
 ! D31   D(9,8,12,15)          179.9996         estimate D2E/DX2                !
 ! D32   D(9,8,12,16)           -0.0001         estimate D2E/DX2                !
 ! D33   D(8,9,10,3)             0.0003         estimate D2E/DX2                !
 ! D34   D(8,9,10,11)         -180.0            estimate D2E/DX2                !
 ! D35   D(14,9,10,3)         -179.9994         estimate D2E/DX2                !
 ! D36   D(14,9,10,11)           0.0003         estimate D2E/DX2                !
 ! D37   D(8,9,22,20)            0.0006         estimate D2E/DX2                !
 ! D38   D(8,9,22,23)         -179.9997         estimate D2E/DX2                !
 ! D39   D(10,9,22,20)        -179.9996         estimate D2E/DX2                !
 ! D40   D(10,9,22,23)           0.0001         estimate D2E/DX2                !
 ! D41   D(3,10,11,28)         179.9985         estimate D2E/DX2                !
 ! D42   D(9,10,11,28)          -0.0012         estimate D2E/DX2                !
 ! D43   D(10,11,24,23)          0.0022         estimate D2E/DX2                !
 ! D44   D(10,11,24,29)       -179.9991         estimate D2E/DX2                !
 ! D45   D(23,17,18,19)         -0.0006         estimate D2E/DX2                !
 ! D46   D(23,17,18,27)       -179.9997         estimate D2E/DX2                !
 ! D47   D(26,17,18,19)        179.9989         estimate D2E/DX2                !
 ! D48   D(26,17,18,27)         -0.0002         estimate D2E/DX2                !
 ! D49   D(18,17,23,22)          0.0004         estimate D2E/DX2                !
 ! D50   D(18,17,23,24)        179.9997         estimate D2E/DX2                !
 ! D51   D(26,17,23,22)       -179.9991         estimate D2E/DX2                !
 ! D52   D(26,17,23,24)          0.0002         estimate D2E/DX2                !
 ! D53   D(17,18,19,20)          0.0005         estimate D2E/DX2                !
 ! D54   D(17,18,19,25)       -179.9995         estimate D2E/DX2                !
 ! D55   D(27,18,19,20)        179.9996         estimate D2E/DX2                !
 ! D56   D(27,18,19,25)         -0.0004         estimate D2E/DX2                !
 ! D57   D(18,19,20,21)       -179.9999         estimate D2E/DX2                !
 ! D58   D(18,19,20,22)         -0.0001         estimate D2E/DX2                !
 ! D59   D(25,19,20,21)          0.0001         estimate D2E/DX2                !
 ! D60   D(25,19,20,22)        179.9999         estimate D2E/DX2                !
 ! D61   D(19,20,22,14)        179.9996         estimate D2E/DX2                !
 ! D62   D(19,20,22,23)         -0.0001         estimate D2E/DX2                !
 ! D63   D(21,20,22,14)         -0.0007         estimate D2E/DX2                !
 ! D64   D(21,20,22,23)        179.9996         estimate D2E/DX2                !
 ! D65   D(14,22,23,17)       -179.9997         estimate D2E/DX2                !
 ! D66   D(14,22,23,24)          0.001          estimate D2E/DX2                !
 ! D67   D(20,22,23,17)          0.0            estimate D2E/DX2                !
 ! D68   D(20,22,23,24)       -179.9993         estimate D2E/DX2                !
 ! D69   D(17,23,24,28)        179.9992         estimate D2E/DX2                !
 ! D70   D(17,23,24,29)          0.0002         estimate D2E/DX2                !
 ! D71   D(22,23,24,28)         -0.0015         estimate D2E/DX2                !
 ! D72   D(22,23,24,29)        179.9995         estimate D2E/DX2                !
 --------------------------------------------------------------------------------
 NAtoms=     29 NQM=       29 NQMF=       0 NMMI=      0 NMMIF=      0
                NMic=       0 NMicF=      0.
                    Isotopes and Nuclear Properties:
 (Nuclear quadrupole moments (NQMom) in fm**2, nuclear magnetic moments (NMagM)
  in nuclear magnetons)

  Atom         1           2           3           4           5           6           7           8           9          10
 IAtWgt=          12          14          12          12          14           1          14          12          14          12
 AtmWgt=  12.0000000  14.0030740  12.0000000  12.0000000  14.0030740   1.0078250  14.0030740  12.0000000  14.0030740  12.0000000
 NucSpn=           0           2           0           0           2           1           2           0           2           0
 AtZEff=  -0.0000000  -0.0000000  -0.0000000  -0.0000000  -0.0000000  -0.0000000  -0.0000000  -0.0000000  -0.0000000  -0.0000000
 NQMom=    0.0000000   2.0440000   0.0000000   0.0000000   2.0440000   0.0000000   2.0440000   0.0000000   2.0440000   0.0000000
 NMagM=    0.0000000   0.4037610   0.0000000   0.0000000   0.4037610   2.7928460   0.4037610   0.0000000   0.4037610   0.0000000
 AtZNuc=   6.0000000   7.0000000   6.0000000   6.0000000   7.0000000   1.0000000   7.0000000   6.0000000   7.0000000   6.0000000

  Atom        11          12          13          14          15          16          17          18          19          20
 IAtWgt=          16          14           1           1           1           1          12          12          14          12
 AtmWgt=  15.9949146  14.0030740   1.0078250   1.0078250   1.0078250   1.0078250  12.0000000  12.0000000  14.0030740  12.0000000
 NucSpn=           0           2           1           1           1           1           0           0           2           0
 AtZEff=  -0.0000000  -0.0000000  -0.0000000  -0.0000000  -0.0000000  -0.0000000  -0.0000000  -0.0000000  -0.0000000  -0.0000000
 NQMom=    0.0000000   2.0440000   0.0000000   0.0000000   0.0000000   0.0000000   0.0000000   0.0000000   2.0440000   0.0000000
 NMagM=    0.0000000   0.4037610   2.7928460   2.7928460   2.7928460   2.7928460   0.0000000   0.0000000   0.4037610   0.0000000
 AtZNuc=   8.0000000   7.0000000   1.0000000   1.0000000   1.0000000   1.0000000   6.0000000   6.0000000   7.0000000   6.0000000

  Atom        21          22          23          24          25          26          27          28          29
 IAtWgt=          16          14          12          14           1           1           1           1           1
 AtmWgt=  15.9949146  14.0030740  12.0000000  14.0030740   1.0078250   1.0078250   1.0078250   1.0078250   1.0078250
 NucSpn=           0           2           0           2           1           1           1           1           1
 AtZEff=  -0.0000000  -0.0000000  -0.0000000  -0.0000000  -0.0000000  -0.0000000  -0.0000000  -0.0000000  -0.0000000
 NQMom=    0.0000000   2.0440000   0.0000000   2.0440000   0.0000000   0.0000000   0.0000000   0.0000000   0.0000000
 NMagM=    0.0000000   0.4037610   0.0000000   0.4037610   2.7928460   2.7928460   2.7928460   2.7928460   2.7928460
 AtZNuc=   8.0000000   7.0000000   6.0000000   7.0000000   1.0000000   1.0000000   1.0000000   1.0000000   1.0000000
 Leave Link  101 at Thu Oct 26 08:24:45 2023, MaxMem=   805306368 cpu:               0.2 elap:               0.2
 (Enter /opt/gaussian/g16/l107.exe)
 Guess transition structure using the linear synchronous transit pathway.
 Leave Link  107 at Thu Oct 26 08:24:45 2023, MaxMem=   805306368 cpu:               0.0 elap:               0.0
 (Enter /opt/gaussian/g16/l202.exe)
                          Input orientation:                          
 ---------------------------------------------------------------------
 Center     Atomic      Atomic             Coordinates (Angstroms)
 Number     Number       Type             X           Y           Z
 ---------------------------------------------------------------------
      1          6           0        4.998808   -0.868539    0.000004
      2          7           0        3.907434   -1.642136    0.000001
      3          6           0        2.822094   -0.727094   -0.000002
      4          6           0        3.287380    0.613415    0.000001
      5          7           0        4.679995    0.515221    0.000006
      6          1           0        5.320344    1.310986    0.000007
      7          7           0        2.562227    1.768382    0.000003
      8          6           0        1.222307    1.539651    0.000000
      9          7           0        0.663489    0.258817   -0.000006
     10          6           0        1.407040   -0.963882   -0.000011
     11          8           0        0.802170   -2.090244   -0.000017
     12          7           0        0.364561    2.596554    0.000012
     13          1           0        6.025121   -1.216961    0.000009
     14          1           0       -0.395384    0.154511   -0.000002
     15          1           0        0.791681    3.523583    0.000023
     16          1           0       -0.673415    2.492897    0.000016
     17          6           0       -4.161649   -1.473790   -0.000003
     18          6           0       -4.932043   -0.342425   -0.000015
     19          7           0       -4.342248    0.905859   -0.000010
     20          6           0       -2.908344    1.080472   -0.000003
     21          8           0       -2.451083    2.262492    0.000004
     22          7           0       -2.143133   -0.067120    0.000001
     23          6           0       -2.714109   -1.311965    0.000001
     24          7           0       -1.888327   -2.375438    0.000019
     25          1           0       -4.897525    1.766486   -0.000011
     26          1           0       -4.615026   -2.461966    0.000011
     27          1           0       -6.021205   -0.372687   -0.000014
     28          1           0       -0.821809   -2.249870    0.000009
     29          1           0       -2.278362   -3.320999    0.000027
 ---------------------------------------------------------------------
                    Distance matrix (angstroms):
                    1          2          3          4          5
     1  C    0.000000
     2  N    1.337740   0.000000
     3  C    2.181305   1.419600   0.000000
     4  C    2.263885   2.339226   1.418963   0.000000
     5  N    1.420012   2.291515   2.234982   1.396073   0.000000
     6  H    2.203115   3.273720   3.224131   2.149313   1.021415
     7  N    3.590304   3.666226   2.508970   1.363743   2.460763
     8  C    4.478989   4.163373   2.774428   2.263281   3.606253
     9  N    4.479500   3.759894   2.373098   2.647743   4.024682
    10  C    3.593033   2.590753   1.434729   2.454291   3.591654
    11  O    4.370850   3.137430   2.436857   3.672335   4.671828
    12  N    5.786460   5.524350   4.133534   3.532097   4.791129
    13  H    1.083843   2.159947   3.240270   3.293251   2.193130
    14  H    5.490350   4.662851   3.336074   3.711246   5.088181
    15  H    6.081994   6.032625   4.710715   3.833744   4.916221
    16  H    6.593434   6.171116   4.752570   4.384102   5.707031
    17  C    9.180430   8.070839   7.023548   7.735920   9.062606
    18  C    9.944777   8.934517   7.763673   8.274814   9.650224
    19  N    9.508092   8.634207   7.348084   7.635231   9.030696
    20  C    8.143813   7.339443   6.008761   6.213303   7.609362
    21  O    8.081103   7.461693   6.061685   5.970713   7.342018
    22  N    7.186765   6.252203   5.008897   5.472988   6.847934
    23  C    7.725653   6.629770   5.567012   6.302774   7.616520
    24  N    7.050062   5.841967   4.990501   5.976720   7.176264
    25  H   10.241131   9.441716   8.112365   8.265727   9.658911
    26  H    9.744989   8.561802   7.636788   8.479740   9.760177
    27  H   11.031163  10.009464   8.850398   9.360670  10.737973
    28  H    5.982279   4.768132   3.949288   5.008377   6.157562
    29  H    7.679307   6.409575   5.722149   6.815944   7.945773
                    6          7          8          9         10
     6  H    0.000000
     7  N    2.795786   0.000000
     8  C    4.104412   1.359303   0.000000
     9  N    4.774239   2.425694   1.397431   0.000000
    10  C    4.526475   2.966433   2.510339   1.431035   0.000000
    11  O    5.655286   4.241084   3.654128   2.353151   1.278499
    12  N    5.119812   2.348532   1.361166   2.356772   3.709915
    13  H    2.624353   4.572079   5.537683   5.561027   4.625010
    14  H    5.831550   3.369279   2.129680   1.063998   2.121211
    15  H    5.040275   2.493103   2.030129   3.267282   4.529460
    16  H    6.109178   3.315766   2.121895   2.603541   4.034553
    17  C    9.882468   7.464730   6.169912   5.126781   5.591986
    18  C   10.384855   7.785858   6.435700   5.627741   6.369473
    19  N    9.671081   6.958141   5.600533   5.047382   6.045680
    20  C    8.231916   5.513653   4.156095   3.665120   4.775136
    21  O    7.829460   5.037601   3.743834   3.703414   5.029374
    22  N    7.589642   5.050691   3.729330   2.825484   3.661681
    23  C    8.451764   6.109686   4.860770   3.724986   4.135823
    24  N    8.096583   6.081009   5.000397   3.667569   3.584959
    25  H   10.228017   7.459752   6.124034   5.761766   6.870404
    26  H   10.627641   8.331195   7.077245   5.938466   6.205605
    27  H   11.465840   8.846439   7.491696   6.714457   7.451734
    28  H    7.099700   5.253385   4.305680   2.915411   2.573234
    29  H    8.899192   7.023753   5.990042   4.633527   4.374722
                   11         12         13         14         15
    11  O    0.000000
    12  N    4.707184   0.000000
    13  H    5.295455   6.825309   0.000000
    14  H    2.544221   2.557556   6.565350   0.000000
    15  H    5.613837   1.020693   7.061278   3.572082   0.000000
    16  H    4.814824   1.043139   7.657247   2.354857   1.791318
    17  C    5.001951   6.087222  10.190007   4.103184   7.036278
    18  C    5.994670   6.057360  10.992009   4.563795   6.907028
    19  N    5.953291   5.001250  10.582472   4.017743   5.762786
    20  C    4.880712   3.606995   9.224153   2.678128   4.433844
    21  O    5.434148   2.835392   9.162567   2.944398   3.479349
    22  N    3.573212   3.658372   8.248788   1.761745   4.637487
    23  C    3.601380   4.975413   8.739746   2.743545   5.972695
    24  N    2.705570   5.458590   7.997795   2.937605   6.479266
    25  H    6.881925   5.327153  11.322771   4.782022   5.954364
    26  H    5.429935   7.098233  10.712738   4.965011   8.065933
    27  H    7.036224   7.042329  12.075875   5.650469   7.848333
    28  H    1.631805   4.989519   6.924403   2.441902   5.994673
    29  H    3.317293   6.480932   8.565910   3.952819   7.501564
                   16         17         18         19         20
    16  H    0.000000
    17  C    5.282271   0.000000
    18  C    5.116147   1.368756   0.000000
    19  N    3.997377   2.386492   1.380605   0.000000
    20  C    2.643833   2.845176   2.473862   1.444497   0.000000
    21  O    1.792537   4.109238   3.597326   2.327436   1.267383
    22  N    2.951908   2.460310   2.802465   2.404744   1.379317
    23  C    4.317570   1.456557   2.420587   2.751287   2.400309
    24  N    5.017639   2.445601   3.660239   4.097394   3.603297
    25  H    4.286115   3.322785   2.109193   1.024213   2.104152
    26  H    6.331427   1.087218   2.143118   3.378854   3.932128
    27  H    6.067160   2.161105   1.089582   2.110350   3.435342
    28  H    4.745088   3.428824   4.531266   4.727802   3.929988
    29  H    6.031355   2.637982   3.989226   4.703823   4.446327
                   21         22         23         24         25
    21  O    0.000000
    22  N    2.349878   0.000000
    23  C    3.584121   1.369545   0.000000
    24  N    4.671947   2.322339   1.346436   0.000000
    25  H    2.496217   3.308895   3.774144   5.119649   0.000000
    26  H    5.196456   3.441735   2.221708   2.728072   4.237878
    27  H    4.437335   3.890092   3.437896   4.592569   2.416344
    28  H    4.797494   2.551528   2.111981   1.073885   5.722113
    29  H    5.586162   3.256688   2.055746   1.022845   5.722108
                   26         27         28         29
    26  H    0.000000
    27  H    2.518417   0.000000
    28  H    3.799142   5.527887   0.000000
    29  H    2.489565   4.764600   1.808000   0.000000
 Symmetry turned off by external request.
 Stoichiometry    C9H10N8O2
 Framework group  C1[X(C9H10N8O2)]
 Deg. of freedom    81
 Full point group                 C1      NOp   1
 Rotational constants (GHZ):           0.8535276           0.2008744           0.1626058
 Leave Link  202 at Thu Oct 26 08:24:45 2023, MaxMem=   805306368 cpu:               0.0 elap:               0.0
 (Enter /opt/gaussian/g16/l301.exe)
 Standard basis: 4-21G (6D, 7F)
 Ernie: Thresh=  0.10000D-02 Tol=  0.10000D-05 Strict=F.
   191 basis functions,   334 primitive gaussians,   191 cartesian basis functions
    68 alpha electrons       68 beta electrons
       nuclear repulsion energy      1376.5485861759 Hartrees.
 IExCor=  402 DFT=T Ex=B Corr=LYP ExCW=0 ScaHFX=  0.000000
 ScaDFX=  1.000000  1.000000  1.000000  1.000000 ScalE2=  1.000000  1.000000
 IRadAn=      5 IRanWt=     -1 IRanGd=            0 ICorTp=0 IEmpDi=131
 NAtoms=   29 NActive=   29 NUniq=   29 SFac= 1.00D+00 NAtFMM=   60 NAOKFM=F Big=F
 Integral buffers will be    131072 words long.
 Raffenetti 2 integral format.
 Two-electron integral symmetry is turned off.
 R6Disp:  Grimme-D3 Dispersion energy=       -0.0321927797 Hartrees.
 Nuclear repulsion after empirical dispersion term =     1376.5163933962 Hartrees.
 Leave Link  301 at Thu Oct 26 08:24:45 2023, MaxMem=   805306368 cpu:               0.0 elap:               0.0
 (Enter /opt/gaussian/g16/l302.exe)
 NPDir=0 NMtPBC=     1 NCelOv=     1 NCel=       1 NClECP=     1 NCelD=      1
         NCelK=      1 NCelE2=     1 NClLst=     1 CellRange=     0.0.
 One-electron integrals computed using PRISM.
 NBasis=   191 RedAO= T EigKep=  4.15D-03  NBF=   191
 NBsUse=   191 1.00D-06 EigRej= -1.00D+00 NBFU=   191
 Precomputing XC quadrature grid using
 IXCGrd= 4 IRadAn=           5 IRanWt=          -1 IRanGd=           0 AccXCQ= 0.00D+00.
 Generated NRdTot=       0 NPtTot=           0 NUsed=           0 NTot=          32
 NSgBfM=   187   187   187   187   187 MxSgAt=    29 MxSgA2=    29.
 Leave Link  302 at Thu Oct 26 08:24:46 2023, MaxMem=   805306368 cpu:               0.7 elap:               0.7
 (Enter /opt/gaussian/g16/l303.exe)
 DipDrv:  MaxL=1.
 Leave Link  303 at Thu Oct 26 08:24:46 2023, MaxMem=   805306368 cpu:               0.0 elap:               0.0
 (Enter /opt/gaussian/g16/l401.exe)
 ExpMin= 1.83D-01 ExpMax= 9.38D+02 ExpMxC= 9.38D+02 IAcc=3 IRadAn=         5 AccDes= 0.00D+00
 Harris functional with IExCor=  402 and IRadAn=       5 diagonalized for initial guess.
 HarFok:  IExCor=  402 AccDes= 0.00D+00 IRadAn=         5 IDoV= 1 UseB2=F ITyADJ=14
 ICtDFT=  3500011 ScaDFX=  1.000000  1.000000  1.000000  1.000000
 FoFCou: FMM=F IPFlag=           0 FMFlag=      100000 FMFlg1=           0
         NFxFlg=           0 DoJE=T BraDBF=F KetDBF=T FulRan=T
         wScrn=  0.000000 ICntrl=       500 IOpCl=  0 I1Cent=   200000004 NGrid=           0
         NMat0=    1 NMatS0=      1 NMatT0=    0 NMatD0=    1 NMtDS0=    0 NMtDT0=    0
 Symmetry not used in FoFCou.
 Harris En= -935.428087362566    
 JPrj=0 DoOrth=F DoCkMO=F.
 Leave Link  401 at Thu Oct 26 08:24:50 2023, MaxMem=   805306368 cpu:               4.1 elap:               4.1
 (Enter /opt/gaussian/g16/l508.exe)
 Keep J ints in memory in canonical form, NReq=171654606.
 FoFCou: FMM=F IPFlag=           0 FMFlag=           0 FMFlg1=           0
         NFxFlg=           0 DoJE=F BraDBF=F KetDBF=F FulRan=T
         wScrn=  0.000000 ICntrl=       600 IOpCl=  0 I1Cent=           0 NGrid=           0
         NMat0=    1 NMatS0=  18336 NMatT0=    0 NMatD0=    1 NMtDS0=    0 NMtDT0=    0
 Symmetry not used in FoFCou.
 Two-electron integral symmetry not used.
 Tight linear equation convergence will be used.
 RB-LYP wavefunction.
 Quadratic Convergence SCF Method.
 Line search only if initial step raises energy.
 Iteration   1 EE= -934.945852230511                                    Grad=8.932D-01 Max rot=    5.7921 deg.
 Gradient too large for Newton-Raphson -- use scaled steepest descent instead.
 Alpha Gap=     0.035 HL deriv= 2.82D-03
     ILin= 1 X=0.000D+00 Y=-9.349458522305D+02 DE= 0.00D+00 F= -2.26D+00
     ILin= 2 X=3.000D-01 Y=-9.352579105924D+02 DE=-3.12D-01 F=  2.39D-01 OKLS=T
     Accept linear search using points  1 and  2.
     An  expanding polynomial of degree  2 produced  0.1432
 Iteration   2 EE= -935.188485257006     Delta-E=       -0.242633026495 Grad=4.832D-01 Max rot=    2.7302 deg.
 Gradient too large for Newton-Raphson -- use scaled steepest descent instead.
 Alpha Gap=     0.066 HL deriv= 1.49D-03
     ILin= 1 X=0.000D+00 Y=-9.351884852570D+02 DE= 0.00D+00 F= -5.52D-01
     ILin= 2 X=3.000D-01 Y=-9.352808755040D+02 DE=-9.24D-02 F= -6.14D-02 OKLS=F
     ILin= 3 X=4.000D-01 Y=-9.352787035326D+02 DE=-9.02D-02 F=  1.05D-01
     An  expanding polynomial of degree  3 produced  0.3368
 Iteration   3 EE= -935.282011145694     Delta-E=       -0.093525888688 Grad=1.465D-01 Max rot=    0.6109 deg.
 Gradient too large for Newton-Raphson -- use scaled steepest descent instead.
 Alpha Gap=     0.084 HL deriv= 2.43D-03
     ILin= 1 X=0.000D+00 Y=-9.352820111457D+02 DE= 0.00D+00 F= -4.44D-02
     ILin= 2 X=2.000D-01 Y=-9.352884081878D+02 DE=-6.40D-03 F= -1.95D-02 OKLS=F
     ILin= 3 X=4.000D-01 Y=-9.352898374964D+02 DE=-7.83D-03 F=  5.23D-03
     Accept linear search using points  2 and  3.
     An  expanding polynomial of degree  3 produced  0.2870
 Iteration   4 EE= -935.289639151835     Delta-E=       -0.007628006140 Grad=6.970D-02 Max rot=    0.2798 deg.
 Gradient too large for Newton-Raphson -- use scaled steepest descent instead.
 Alpha Gap=     0.081 HL deriv= 4.22D-06
     ILin= 1 X=0.000D+00 Y=-9.352896391518D+02 DE= 0.00D+00 F= -8.39D-03
     ILin= 2 X=3.000D-01 Y=-9.352915102249D+02 DE=-1.87D-03 F= -4.08D-03 OKLS=F
     ILin= 3 X=7.000D-01 Y=-9.352919864685D+02 DE=-2.35D-03 F=  1.70D-03
     Accept linear search using points  2 and  3.
     An  expanding polynomial of degree  3 produced  0.5089
 Iteration   5 EE= -935.292047152240     Delta-E=       -0.002408000405 Grad=3.384D-02 Max rot=    0.1784 deg.
 Gradient too large for Newton-Raphson -- use scaled steepest descent instead.
 Alpha Gap=     0.083 HL deriv= 1.27D-03
     ILin= 1 X=0.000D+00 Y=-9.352920471522D+02 DE= 0.00D+00 F= -2.23D-03
     ILin= 2 X=4.000D-01 Y=-9.352923900542D+02 DE=-3.43D-04 F=  5.19D-04 OKLS=T
     Accept linear search using points  1 and  2.
     An  expanding polynomial of degree  2 produced  0.2148
 Iteration   6 EE= -935.292368224299     Delta-E=       -0.000321072060 Grad=2.042D-02 Max rot=    0.0997 deg.
 Gradient too large for Newton-Raphson -- use scaled steepest descent instead.
 Alpha Gap=     0.083 HL deriv= 4.42D-04
     ILin= 1 X=0.000D+00 Y=-9.352923682243D+02 DE= 0.00D+00 F= -5.10D-04
     ILin= 2 X=5.000D-01 Y=-9.352925475505D+02 DE=-1.79D-04 F= -2.08D-04 OKLS=F
     ILin= 3 X=1.000D+00 Y=-9.352925758518D+02 DE=-2.08D-04 F=  9.44D-05
     Accept linear search using points  2 and  3.
     An  expanding polynomial of degree  3 produced  0.7748
 Iteration   7 EE= -935.292581794000     Delta-E=       -0.000213569701 Grad=4.549D-03 Max rot=    0.0201 deg.
 QCNR:  CnvC1=1.29D-08 CnvC2=1.29D-07
 LinEq1:  Iter=  0 NonCon=     1 RMS=6.91D-05 Max=3.12D-03 NDo=     1
 AX will form     1 AO Fock derivatives at one time.
 LinEq1:  Iter=  1 NonCon=     1 RMS=8.48D-05 Max=1.93D-03 NDo=     1
 LinEq1:  Iter=  2 NonCon=     1 RMS=3.92D-05 Max=1.36D-03 NDo=     1
 LinEq1:  Iter=  3 NonCon=     1 RMS=2.47D-05 Max=6.50D-04 NDo=     1
 LinEq1:  Iter=  4 NonCon=     1 RMS=2.58D-05 Max=1.01D-03 NDo=     1
 LinEq1:  Iter=  5 NonCon=     1 RMS=2.59D-05 Max=7.81D-04 NDo=     1
 LinEq1:  Iter=  6 NonCon=     1 RMS=1.90D-05 Max=5.62D-04 NDo=     1
 LinEq1:  Iter=  7 NonCon=     1 RMS=1.07D-05 Max=2.12D-04 NDo=     1
 LinEq1:  Iter=  8 NonCon=     1 RMS=8.01D-06 Max=1.73D-04 NDo=     1
 LinEq1:  Iter=  9 NonCon=     1 RMS=4.54D-06 Max=9.07D-05 NDo=     1
 LinEq1:  Iter= 10 NonCon=     1 RMS=4.20D-06 Max=1.07D-04 NDo=     1
 LinEq1:  Iter= 11 NonCon=     1 RMS=3.17D-06 Max=7.59D-05 NDo=     1
 LinEq1:  Iter= 12 NonCon=     1 RMS=2.63D-06 Max=8.69D-05 NDo=     1
 LinEq1:  Iter= 13 NonCon=     1 RMS=2.07D-06 Max=6.83D-05 NDo=     1
 LinEq1:  Iter= 14 NonCon=     1 RMS=1.63D-06 Max=3.05D-05 NDo=     1
 LinEq1:  Iter= 15 NonCon=     1 RMS=1.21D-06 Max=4.96D-05 NDo=     1
 LinEq1:  Iter= 16 NonCon=     1 RMS=9.72D-07 Max=2.04D-05 NDo=     1
 LinEq1:  Iter= 17 NonCon=     1 RMS=3.92D-07 Max=9.89D-06 NDo=     1
 LinEq1:  Iter= 18 NonCon=     1 RMS=3.03D-07 Max=7.15D-06 NDo=     1
 LinEq1:  Iter= 19 NonCon=     1 RMS=2.56D-07 Max=6.89D-06 NDo=     1
 LinEq1:  Iter= 20 NonCon=     1 RMS=1.41D-07 Max=3.00D-06 NDo=     1
 LinEq1:  Iter= 21 NonCon=     1 RMS=8.00D-08 Max=1.41D-06 NDo=     1
 LinEq1:  Iter= 22 NonCon=     1 RMS=3.07D-08 Max=4.65D-07 NDo=     1
 LinEq1:  Iter= 23 NonCon=     1 RMS=1.88D-08 Max=4.34D-07 NDo=     1
 LinEq1:  Iter= 24 NonCon=     0 RMS=6.95D-09 Max=9.52D-08 NDo=     1
 Linear equations converged to 1.293D-08 1.293D-07 after    24 iterations.
 Angle between quadratic step and gradient=  53.25 degrees.
     ILin= 1 X=0.000D+00 Y=-9.352925817940D+02 DE= 0.00D+00 F= -2.12D-05
     ILin= 2 X=1.000D+00 Y=-9.352925923854D+02 DE=-1.06D-05 F=  1.69D-08 OKLS=T
     Accept linear search using points  1 and  2.
     An  expanding polynomial of degree  2 produced  0.9992
     Minimum is close to point  2 DX= -7.96D-04 DF= -6.71D-12 DXR=  7.97D-04 DFR=  6.33D-07 which will be used.
 Iteration   8 EE= -935.292592385415     Delta-E=       -0.000010591415 Grad=3.657D-06 Max rot=    0.0000 deg.
 QCNR:  CnvC1=3.66D-11 CnvC2=3.66D-10
 LinEq1:  Iter=  0 NonCon=     1 RMS=9.29D-08 Max=3.55D-06 NDo=     1
 LinEq1:  Iter=  1 NonCon=     1 RMS=1.34D-07 Max=4.38D-06 NDo=     1
 LinEq1:  Iter=  2 NonCon=     1 RMS=7.16D-08 Max=2.34D-06 NDo=     1
 LinEq1:  Iter=  3 NonCon=     1 RMS=3.81D-08 Max=1.43D-06 NDo=     1
 LinEq1:  Iter=  4 NonCon=     1 RMS=4.25D-08 Max=1.63D-06 NDo=     1
 LinEq1:  Iter=  5 NonCon=     1 RMS=2.91D-08 Max=6.31D-07 NDo=     1
 LinEq1:  Iter=  6 NonCon=     1 RMS=2.64D-08 Max=5.56D-07 NDo=     1
 LinEq1:  Iter=  7 NonCon=     1 RMS=2.48D-08 Max=7.57D-07 NDo=     1
 LinEq1:  Iter=  8 NonCon=     1 RMS=2.21D-08 Max=6.10D-07 NDo=     1
 LinEq1:  Iter=  9 NonCon=     1 RMS=1.74D-08 Max=4.69D-07 NDo=     1
 LinEq1:  Iter= 10 NonCon=     1 RMS=1.20D-08 Max=2.98D-07 NDo=     1
 LinEq1:  Iter= 11 NonCon=     1 RMS=9.25D-09 Max=2.34D-07 NDo=     1
 LinEq1:  Iter= 12 NonCon=     1 RMS=5.50D-09 Max=1.49D-07 NDo=     1
 LinEq1:  Iter= 13 NonCon=     1 RMS=6.26D-09 Max=1.82D-07 NDo=     1
 LinEq1:  Iter= 14 NonCon=     1 RMS=4.50D-09 Max=1.78D-07 NDo=     1
 LinEq1:  Iter= 15 NonCon=     1 RMS=2.96D-09 Max=6.01D-08 NDo=     1
 LinEq1:  Iter= 16 NonCon=     1 RMS=1.86D-09 Max=4.86D-08 NDo=     1
 LinEq1:  Iter= 17 NonCon=     1 RMS=1.52D-09 Max=4.27D-08 NDo=     1
 LinEq1:  Iter= 18 NonCon=     1 RMS=9.86D-10 Max=2.32D-08 NDo=     1
 LinEq1:  Iter= 19 NonCon=     1 RMS=1.03D-09 Max=2.53D-08 NDo=     1
 LinEq1:  Iter= 20 NonCon=     1 RMS=3.27D-10 Max=9.57D-09 NDo=     1
 LinEq1:  Iter= 21 NonCon=     1 RMS=2.94D-10 Max=6.33D-09 NDo=     1
 LinEq1:  Iter= 22 NonCon=     1 RMS=7.84D-11 Max=1.66D-09 NDo=     1
 LinEq1:  Iter= 23 NonCon=     1 RMS=6.41D-11 Max=1.22D-09 NDo=     1
 LinEq1:  Iter= 24 NonCon=     1 RMS=2.03D-11 Max=7.04D-10 NDo=     1
 LinEq1:  Iter= 25 NonCon=     1 RMS=1.74D-11 Max=4.05D-10 NDo=     1
 LinEq1:  Iter= 26 NonCon=     0 RMS=5.66D-12 Max=1.53D-10 NDo=     1
 Linear equations converged to 3.657D-11 3.657D-10 after    26 iterations.
 Angle between quadratic step and gradient=  46.11 degrees.
     ILin= 1 X=0.000D+00 Y=-9.352925923854D+02 DE= 0.00D+00 F= -4.13D-11
     ILin= 2 X=1.000D+00 Y=-9.352925923854D+02 DE=-1.82D-11
 Iteration   9 EE= -935.292592385433     Delta-E=       -0.000000000018 Grad=4.264D-11 Max rot=    0.0000 deg.
 Rotation gradient small -- convergence achieved.
 SCF Done:  E(RB-LYP) =  -935.292592385     a.u. after    9 cycles
            Convg  =    0.4264D-10                    69 Fock formations.
              S**2 =  0.0000                  -V/T =  2.0062
 Leave Link  508 at Thu Oct 26 08:31:01 2023, MaxMem=   805306368 cpu:             371.3 elap:             371.4
 (Enter /opt/gaussian/g16/l601.exe)
 Copying SCF densities to generalized density rwf, IOpCl= 0 IROHF=0.

 **********************************************************************

            Population analysis using the SCF Density.

 **********************************************************************

 Alpha  occ. eigenvalues --  -18.76809 -18.74110 -14.09600 -14.06065 -14.04261
 Alpha  occ. eigenvalues --  -14.03482 -14.02460 -14.01433 -13.98954 -13.98894
 Alpha  occ. eigenvalues --  -10.05525 -10.02601 -10.01708 -10.00579 -10.00182
 Alpha  occ. eigenvalues --   -9.97105  -9.96175  -9.94953  -9.91775  -0.96037
 Alpha  occ. eigenvalues --   -0.92004  -0.90164  -0.89315  -0.87604  -0.86437
 Alpha  occ. eigenvalues --   -0.80002  -0.79244  -0.78469  -0.76566  -0.71865
 Alpha  occ. eigenvalues --   -0.65478  -0.60818  -0.59639  -0.57581  -0.55643
 Alpha  occ. eigenvalues --   -0.53181  -0.52244  -0.51030  -0.49933  -0.48017
 Alpha  occ. eigenvalues --   -0.45464  -0.45140  -0.43995  -0.42444  -0.40608
 Alpha  occ. eigenvalues --   -0.40413  -0.40341  -0.39471  -0.37980  -0.37520
 Alpha  occ. eigenvalues --   -0.35602  -0.34978  -0.33399  -0.33188  -0.32449
 Alpha  occ. eigenvalues --   -0.30855  -0.30215  -0.23763  -0.23078  -0.21818
 Alpha  occ. eigenvalues --   -0.21224  -0.20637  -0.20560  -0.20334  -0.18978
 Alpha  occ. eigenvalues --   -0.18396  -0.17097  -0.13912
 Alpha virt. eigenvalues --   -0.06068  -0.01826  -0.00086   0.01062   0.04019
 Alpha virt. eigenvalues --    0.04828   0.07702   0.08676   0.08732   0.09180
 Alpha virt. eigenvalues --    0.10735   0.12999   0.13429   0.14901   0.15165
 Alpha virt. eigenvalues --    0.16888   0.18183   0.19130   0.19548   0.20857
 Alpha virt. eigenvalues --    0.22681   0.23680   0.25621   0.26472   0.28370
 Alpha virt. eigenvalues --    0.29727   0.31388   0.34453   0.34826   0.36923
 Alpha virt. eigenvalues --    0.37875   0.39462   0.41726   0.44468   0.46969
 Alpha virt. eigenvalues --    0.51347   0.53612   0.60171   0.60539   0.63347
 Alpha virt. eigenvalues --    0.64277   0.64719   0.67645   0.68852   0.68913
 Alpha virt. eigenvalues --    0.69294   0.69803   0.70071   0.71013   0.72444
 Alpha virt. eigenvalues --    0.72658   0.74553   0.74791   0.77488   0.77885
 Alpha virt. eigenvalues --    0.78357   0.80075   0.80562   0.82181   0.84290
 Alpha virt. eigenvalues --    0.85575   0.86098   0.88059   0.91052   0.93077
 Alpha virt. eigenvalues --    0.98538   0.99510   1.03144   1.04192   1.05143
 Alpha virt. eigenvalues --    1.06713   1.07712   1.08150   1.08364   1.09904
 Alpha virt. eigenvalues --    1.10472   1.13538   1.15652   1.16624   1.18262
 Alpha virt. eigenvalues --    1.19433   1.22185   1.22502   1.24016   1.26320
 Alpha virt. eigenvalues --    1.27108   1.30437   1.33510   1.33740   1.35430
 Alpha virt. eigenvalues --    1.36227   1.43918   1.46162   1.47979   1.48597
 Alpha virt. eigenvalues --    1.51396   1.51657   1.54016   1.55953   1.59721
 Alpha virt. eigenvalues --    1.60730   1.62861   1.63619   1.66184   1.67625
 Alpha virt. eigenvalues --    1.74371   1.76574   1.79802   1.90861   1.98696
 Alpha virt. eigenvalues --    1.99196   2.03231   2.12924   2.51656   2.57657
 Alpha virt. eigenvalues --    2.60895   2.72772   2.79138   2.86853   2.88471
 Alpha virt. eigenvalues --    3.12149   3.28247   3.44582
          Condensed to atoms (all electrons):
               1          2          3          4          5          6
     1  C    4.956193   0.465415  -0.139243  -0.130305   0.242270  -0.013203
     2  N    0.465415   6.922915   0.315816  -0.060300  -0.077778   0.002073
     3  C   -0.139243   0.315816   5.742304   0.111988  -0.083578   0.007825
     4  C   -0.130305  -0.060300   0.111988   5.132655   0.233718  -0.023113
     5  N    0.242270  -0.077778  -0.083578   0.233718   7.147654   0.308554
     6  H   -0.013203   0.002073   0.007825  -0.023113   0.308554   0.410351
     7  N    0.002187   0.002042  -0.041871   0.364582  -0.038299   0.002626
     8  C   -0.000000   0.000362  -0.005432  -0.107789   0.001294  -0.000041
     9  N   -0.000101   0.000899  -0.114832  -0.008515   0.000067   0.000009
    10  C    0.005418  -0.040954   0.161209  -0.074095   0.003224  -0.000011
    11  O   -0.000013  -0.000948  -0.079035   0.002481  -0.000003   0.000000
    12  N    0.000000   0.000000  -0.000016   0.000837  -0.000007  -0.000002
    13  H    0.375554  -0.033029   0.005102   0.001991  -0.045546   0.000685
    14  H    0.000001  -0.000006   0.003199   0.000031   0.000001  -0.000000
    15  H    0.000000  -0.000000   0.000054   0.000142  -0.000005   0.000002
    16  H   -0.000000  -0.000000   0.000001  -0.000078   0.000000   0.000000
    17  C   -0.000000   0.000000  -0.000000   0.000000  -0.000000   0.000000
    18  C    0.000000   0.000000   0.000000  -0.000000   0.000000  -0.000000
    19  N    0.000000   0.000000  -0.000000   0.000000  -0.000000   0.000000
    20  C    0.000000   0.000000   0.000000   0.000000  -0.000000   0.000000
    21  O    0.000000   0.000000   0.000000   0.000000  -0.000000  -0.000000
    22  N   -0.000000   0.000000  -0.000011  -0.000000  -0.000000   0.000000
    23  C   -0.000000   0.000000  -0.000007   0.000000  -0.000000   0.000000
    24  N   -0.000000  -0.000000  -0.000054   0.000000  -0.000000   0.000000
    25  H    0.000000  -0.000000   0.000000  -0.000000   0.000000  -0.000000
    26  H    0.000000  -0.000000   0.000000   0.000000   0.000000  -0.000000
    27  H   -0.000000   0.000000  -0.000000   0.000000  -0.000000   0.000000
    28  H    0.000000   0.000001   0.001908  -0.000037   0.000000  -0.000000
    29  H    0.000000  -0.000000   0.000001  -0.000000   0.000000  -0.000000
               7          8          9         10         11         12
     1  C    0.002187  -0.000000  -0.000101   0.005418  -0.000013   0.000000
     2  N    0.002042   0.000362   0.000899  -0.040954  -0.000948   0.000000
     3  C   -0.041871  -0.005432  -0.114832   0.161209  -0.079035  -0.000016
     4  C    0.364582  -0.107789  -0.008515  -0.074095   0.002481   0.000837
     5  N   -0.038299   0.001294   0.000067   0.003224  -0.000003  -0.000007
     6  H    0.002626  -0.000041   0.000009  -0.000011   0.000000  -0.000002
     7  N    6.988495   0.463347  -0.060328  -0.013938  -0.000002  -0.060736
     8  C    0.463347   4.422717   0.229101  -0.042962   0.000936   0.321742
     9  N   -0.060328   0.229101   7.493221   0.160798  -0.062342  -0.063639
    10  C   -0.013938  -0.042962   0.160798   4.785233   0.485625   0.000598
    11  O   -0.000002   0.000936  -0.062342   0.485625   8.065257  -0.000002
    12  N   -0.060736   0.321742  -0.063639   0.000598  -0.000002   7.019468
    13  H   -0.000013   0.000002   0.000000  -0.000050  -0.000000  -0.000000
    14  H    0.000986  -0.014371   0.217340  -0.016853  -0.000845  -0.001319
    15  H    0.004702  -0.028670   0.003597  -0.000025   0.000000   0.312542
    16  H    0.001374  -0.020612  -0.001645  -0.000060  -0.000001   0.240324
    17  C   -0.000000  -0.000000  -0.000026  -0.000002  -0.000004   0.000000
    18  C    0.000000   0.000000   0.000000   0.000000   0.000000   0.000000
    19  N   -0.000000  -0.000001  -0.000003   0.000000  -0.000000  -0.000005
    20  C   -0.000001  -0.000042  -0.000062   0.000029   0.000002  -0.000553
    21  O   -0.000000  -0.000226   0.000088   0.000001   0.000000  -0.016682
    22  N   -0.000002  -0.000132  -0.028256   0.000022  -0.000051   0.000257
    23  C   -0.000000   0.000005  -0.000577   0.000049  -0.000493   0.000003
    24  N   -0.000000  -0.000000   0.000518  -0.000477  -0.027113  -0.000000
    25  H    0.000000   0.000000   0.000000   0.000000   0.000000   0.000000
    26  H    0.000000   0.000000   0.000000   0.000000   0.000000   0.000000
    27  H   -0.000000  -0.000000  -0.000000  -0.000000  -0.000000  -0.000000
    28  H    0.000001   0.000027  -0.002932  -0.001488   0.122243  -0.000000
    29  H    0.000000   0.000000  -0.000008   0.000031   0.000461  -0.000000
              13         14         15         16         17         18
     1  C    0.375554   0.000001   0.000000  -0.000000  -0.000000   0.000000
     2  N   -0.033029  -0.000006  -0.000000  -0.000000   0.000000   0.000000
     3  C    0.005102   0.003199   0.000054   0.000001  -0.000000   0.000000
     4  C    0.001991   0.000031   0.000142  -0.000078   0.000000  -0.000000
     5  N   -0.045546   0.000001  -0.000005   0.000000  -0.000000   0.000000
     6  H    0.000685  -0.000000   0.000002   0.000000   0.000000  -0.000000
     7  N   -0.000013   0.000986   0.004702   0.001374  -0.000000   0.000000
     8  C    0.000002  -0.014371  -0.028670  -0.020612  -0.000000   0.000000
     9  N    0.000000   0.217340   0.003597  -0.001645  -0.000026   0.000000
    10  C   -0.000050  -0.016853  -0.000025  -0.000060  -0.000002   0.000000
    11  O   -0.000000  -0.000845   0.000000  -0.000001  -0.000004   0.000000
    12  N   -0.000000  -0.001319   0.312542   0.240324   0.000000   0.000000
    13  H    0.503618  -0.000000  -0.000000   0.000000   0.000000   0.000000
    14  H   -0.000000   0.350089   0.000007   0.003342   0.000719  -0.000007
    15  H   -0.000000   0.000007   0.425375  -0.014158   0.000000  -0.000000
    16  H    0.000000   0.003342  -0.014158   0.384707  -0.000003  -0.000011
    17  C    0.000000   0.000719   0.000000  -0.000003   5.344580   0.473073
    18  C    0.000000  -0.000007  -0.000000  -0.000011   0.473073   4.934030
    19  N    0.000000   0.000293   0.000000   0.000487  -0.051322   0.282833
    20  C   -0.000000  -0.002238   0.000022   0.000445  -0.013810  -0.048092
    21  O   -0.000000  -0.001494   0.000159   0.092031   0.000063   0.000926
    22  N    0.000000   0.111846  -0.000001  -0.002417  -0.050939  -0.010282
    23  C    0.000000  -0.000858  -0.000000   0.000017   0.268242  -0.081577
    24  N    0.000000  -0.002767  -0.000000   0.000000  -0.076608   0.003248
    25  H   -0.000000  -0.000009  -0.000000  -0.000016   0.003303  -0.026845
    26  H   -0.000000  -0.000006  -0.000000  -0.000000   0.375359  -0.038904
    27  H    0.000000   0.000000   0.000000   0.000000  -0.032628   0.371166
    28  H   -0.000000   0.004443   0.000000   0.000000   0.001973  -0.000046
    29  H   -0.000000   0.000038   0.000000   0.000000  -0.001320   0.000241
              19         20         21         22         23         24
     1  C    0.000000   0.000000   0.000000  -0.000000  -0.000000  -0.000000
     2  N    0.000000   0.000000   0.000000   0.000000   0.000000  -0.000000
     3  C   -0.000000   0.000000   0.000000  -0.000011  -0.000007  -0.000054
     4  C    0.000000   0.000000   0.000000  -0.000000   0.000000   0.000000
     5  N   -0.000000  -0.000000  -0.000000  -0.000000  -0.000000  -0.000000
     6  H    0.000000   0.000000  -0.000000   0.000000   0.000000   0.000000
     7  N   -0.000000  -0.000001  -0.000000  -0.000002  -0.000000  -0.000000
     8  C   -0.000001  -0.000042  -0.000226  -0.000132   0.000005  -0.000000
     9  N   -0.000003  -0.000062   0.000088  -0.028256  -0.000577   0.000518
    10  C    0.000000   0.000029   0.000001   0.000022   0.000049  -0.000477
    11  O   -0.000000   0.000002   0.000000  -0.000051  -0.000493  -0.027113
    12  N   -0.000005  -0.000553  -0.016682   0.000257   0.000003  -0.000000
    13  H    0.000000  -0.000000  -0.000000   0.000000   0.000000   0.000000
    14  H    0.000293  -0.002238  -0.001494   0.111846  -0.000858  -0.002767
    15  H    0.000000   0.000022   0.000159  -0.000001  -0.000000  -0.000000
    16  H    0.000487   0.000445   0.092031  -0.002417   0.000017   0.000000
    17  C   -0.051322  -0.013810   0.000063  -0.050939   0.268242  -0.076608
    18  C    0.282833  -0.048092   0.000926  -0.010282  -0.081577   0.003248
    19  N    7.216683   0.113603  -0.066636  -0.081469  -0.013009   0.000009
    20  C    0.113603   4.529890   0.486189   0.225032  -0.041421   0.001619
    21  O   -0.066636   0.486189   8.034196  -0.059722   0.000673  -0.000002
    22  N   -0.081469   0.225032  -0.059722   7.238620   0.354299  -0.062784
    23  C   -0.013009  -0.041421   0.000673   0.354299   4.662528   0.331583
    24  N    0.000009   0.001619  -0.000002  -0.062784   0.331583   7.053447
    25  H    0.301345  -0.011493   0.005740   0.003132   0.000062   0.000003
    26  H    0.002261   0.000457   0.000001   0.002123  -0.028831  -0.003136
    27  H   -0.037404   0.001190  -0.000023  -0.000102   0.003574  -0.000030
    28  H    0.000001  -0.000034  -0.000002  -0.001557  -0.018331   0.193910
    29  H    0.000007  -0.000082   0.000000   0.002728  -0.040210   0.322691
              25         26         27         28         29
     1  C    0.000000   0.000000  -0.000000   0.000000   0.000000
     2  N   -0.000000  -0.000000   0.000000   0.000001  -0.000000
     3  C    0.000000   0.000000  -0.000000   0.001908   0.000001
     4  C   -0.000000   0.000000   0.000000  -0.000037  -0.000000
     5  N    0.000000   0.000000  -0.000000   0.000000   0.000000
     6  H   -0.000000  -0.000000   0.000000  -0.000000  -0.000000
     7  N    0.000000   0.000000  -0.000000   0.000001   0.000000
     8  C    0.000000   0.000000  -0.000000   0.000027   0.000000
     9  N    0.000000   0.000000  -0.000000  -0.002932  -0.000008
    10  C    0.000000   0.000000  -0.000000  -0.001488   0.000031
    11  O    0.000000   0.000000  -0.000000   0.122243   0.000461
    12  N    0.000000   0.000000  -0.000000  -0.000000  -0.000000
    13  H   -0.000000  -0.000000   0.000000  -0.000000  -0.000000
    14  H   -0.000009  -0.000006   0.000000   0.004443   0.000038
    15  H   -0.000000  -0.000000   0.000000   0.000000   0.000000
    16  H   -0.000016  -0.000000   0.000000   0.000000   0.000000
    17  C    0.003303   0.375359  -0.032628   0.001973  -0.001320
    18  C   -0.026845  -0.038904   0.371166  -0.000046   0.000241
    19  N    0.301345   0.002261  -0.037404   0.000001   0.000007
    20  C   -0.011493   0.000457   0.001190  -0.000034  -0.000082
    21  O    0.005740   0.000001  -0.000023  -0.000002   0.000000
    22  N    0.003132   0.002123  -0.000102  -0.001557   0.002728
    23  C    0.000062  -0.028831   0.003574  -0.018331  -0.040210
    24  N    0.000003  -0.003136  -0.000030   0.193910   0.322691
    25  H    0.406877  -0.000043  -0.003764  -0.000000  -0.000000
    26  H   -0.000043   0.520286  -0.003484  -0.000030   0.002389
    27  H   -0.003764  -0.003484   0.484856   0.000000  -0.000000
    28  H   -0.000000  -0.000030   0.000000   0.368589  -0.010640
    29  H   -0.000000   0.002389  -0.000000  -0.010640   0.429528
 Mulliken charges:
               1
     1  C    0.235826
     2  N   -0.496509
     3  C    0.114672
     4  C    0.555806
     5  N   -0.691567
     6  H    0.304245
     7  N   -0.615151
     8  C    0.780745
     9  N   -0.762374
    10  C    0.588679
    11  O   -0.506153
    12  N   -0.752810
    13  H    0.191686
    14  H    0.348437
    15  H    0.296257
    16  H    0.316273
    17  C   -0.240650
    18  C    0.140246
    19  N   -0.667673
    20  C    0.759349
    21  O   -0.475279
    22  N   -0.640334
    23  C    0.604279
    24  N   -0.734059
    25  H    0.321707
    26  H    0.171558
    27  H    0.216650
    28  H    0.341998
    29  H    0.294145
 Sum of Mulliken charges =  -0.00000
 Mulliken charges with hydrogens summed into heavy atoms:
               1
     1  C    0.427512
     2  N   -0.496509
     3  C    0.114672
     4  C    0.555806
     5  N   -0.387322
     7  N   -0.615151
     8  C    0.780745
     9  N   -0.413937
    10  C    0.588679
    11  O   -0.506153
    12  N   -0.140279
    17  C   -0.069092
    18  C    0.356896
    19  N   -0.345966
    20  C    0.759349
    21  O   -0.475279
    22  N   -0.640334
    23  C    0.604279
    24  N   -0.097915
 Electronic spatial extent (au):  <R**2>=           6108.5175
 Charge=             -0.0000 electrons
 Dipole moment (field-independent basis, Debye):
    X=             -6.5269    Y=              1.3997    Z=              0.0000  Tot=              6.6753
 Quadrupole moment (field-independent basis, Debye-Ang):
   XX=            -57.4260   YY=           -105.1555   ZZ=           -111.5625
   XY=             16.2133   XZ=              0.0001   YZ=             -0.0001
 Traceless Quadrupole moment (field-independent basis, Debye-Ang):
   XX=             33.9553   YY=            -13.7741   ZZ=            -20.1812
   XY=             16.2133   XZ=              0.0001   YZ=             -0.0001
 Octapole moment (field-independent basis, Debye-Ang**2):
  XXX=            -80.8965  YYY=              8.5673  ZZZ=              0.0001  XYY=            -55.0915
  XXY=             37.8473  XXZ=              0.0001  XZZ=             -1.8942  YZZ=              3.5167
  YYZ=              0.0008  XYZ=              0.0004
 Hexadecapole moment (field-independent basis, Debye-Ang**3):
 XXXX=          -4236.1978 YYYY=          -1326.8826 ZZZZ=            -96.9084 XXXY=             83.5407
 XXXZ=              0.0016 YYYX=            165.9037 YYYZ=             -0.0009 ZZZX=             -0.0023
 ZZZY=             -0.0006 XXYY=          -1240.4304 XXZZ=          -1160.6030 YYZZ=           -277.7140
 XXYZ=             -0.0018 YYXZ=             -0.0011 ZZXY=            -15.5615
 N-N= 1.376516393396D+03 E-N=-4.937369695505D+03  KE= 9.294987819341D+02
 No NMR shielding tensors so no spin-rotation constants.
 Leave Link  601 at Thu Oct 26 08:31:01 2023, MaxMem=   805306368 cpu:               0.1 elap:               0.1
 (Enter /opt/gaussian/g16/l107.exe)
 Allocation:
     ICR=      1    ICP=     88 IAnSav=    175
     IRI=    204    IWt=   4032    IDP=   7860  ICScr=   7947
     IRC=   8034     IC=  11862     IX=  15777    IDF=  15864
    IDDF=  15951  IXInc=  23520  IEVal=  23607  IEVec=  23694
   IScr1=  31263  IScr2=  31350   IEnd=  31436
 Recover reactant geometry.  Energy = -0.93529259D+03
 Leave Link  107 at Thu Oct 26 08:31:01 2023, MaxMem=   805306368 cpu:               0.0 elap:               0.0
 (Enter /opt/gaussian/g16/l101.exe)
 ----------------------------------------------------------------------
 10 27 =1.7318052129445476 B 13 21 =1.8617454036185253 B 15 20 =1.89253
 73029292867 B 10 27 F 13 21 F 15 20 
 ----------------------------------------------------------------------
 Charge and Multiplicity card seems defective:
 Wanted an integer as input.
                                                                                 
 ?
 Error termination via Lnk1e in /opt/gaussian/g16/l101.exe at Thu Oct 26 08:31:02 2023.
 Job cpu time:       0 days  0 hours  6 minutes 16.5 seconds.
 Elapsed time:       0 days  0 hours  6 minutes 16.5 seconds.
 File lengths (MBytes):  RWF=     17 Int=      0 D2E=      0 Chk=      3 Scr=      1
