 Entering Gaussian System, Link 0=g16
 Input=opt.com
 Output=opt.log
 Initial command:
 /opt/gaussian/g16/l1.exe "/mnt/scratch/hwang/Gau-913640.inp" -scrdir="/mnt/scratch/hwang/"
 Entering Link 1 = /opt/gaussian/g16/l1.exe PID=    913649.
  
 Copyright (c) 1988-2019, Gaussian, Inc.  All Rights Reserved.
  
 This is part of the Gaussian(R) 16 program.  It is based on
 the Gaussian(R) 09 system (copyright 2009, Gaussian, Inc.),
 the Gaussian(R) 03 system (copyright 2003, Gaussian, Inc.),
 the Gaussian(R) 98 system (copyright 1998, Gaussian, Inc.),
 the Gaussian(R) 94 system (copyright 1995, Gaussian, Inc.),
 the Gaussian 92(TM) system (copyright 1992, Gaussian, Inc.),
 the Gaussian 90(TM) system (copyright 1990, Gaussian, Inc.),
 the Gaussian 88(TM) system (copyright 1988, Gaussian, Inc.),
 the Gaussian 86(TM) system (copyright 1986, Carnegie Mellon
 University), and the Gaussian 82(TM) system (copyright 1983,
 Carnegie Mellon University). Gaussian is a federally registered
 trademark of Gaussian, Inc.
  
 This software contains proprietary and confidential information,
 including trade secrets, belonging to Gaussian, Inc.
  
 This software is provided under written license and may be
 used, copied, transmitted, or stored only in accord with that
 written license.
  
 The following legend is applicable only to US Government
 contracts under FAR:
  
                    RESTRICTED RIGHTS LEGEND
  
 Use, reproduction and disclosure by the US Government is
 subject to restrictions as set forth in subparagraphs (a)
 and (c) of the Commercial Computer Software - Restricted
 Rights clause in FAR 52.227-19.
  
 Gaussian, Inc.
 340 Quinnipiac St., Bldg. 40, Wallingford CT 06492
  
  
 ---------------------------------------------------------------
 Warning -- This program may not be used in any manner that
 competes with the business of Gaussian, Inc. or will provide
 assistance to any competitor of Gaussian, Inc.  The licensee
 of this program is prohibited from giving any competitor of
 Gaussian, Inc. access to this program.  By using this program,
 the user acknowledges that Gaussian, Inc. is engaged in the
 business of creating and licensing software in the field of
 computational chemistry and represents and warrants to the
 licensee that it is not a competitor of Gaussian, Inc. and that
 it will not use this program in any manner prohibited above.
 ---------------------------------------------------------------
  

 Cite this work as:
 Gaussian 16, Revision C.01,
 M. J. Frisch, G. W. Trucks, H. B. Schlegel, G. E. Scuseria, 
 M. A. Robb, J. R. Cheeseman, G. Scalmani, V. Barone, 
 G. A. Petersson, H. Nakatsuji, X. Li, M. Caricato, A. V. Marenich, 
 J. Bloino, B. G. Janesko, R. Gomperts, B. Mennucci, H. P. Hratchian, 
 J. V. Ortiz, A. F. Izmaylov, J. L. Sonnenberg, D. Williams-Young, 
 F. Ding, F. Lipparini, F. Egidi, J. Goings, B. Peng, A. Petrone, 
 T. Henderson, D. Ranasinghe, V. G. Zakrzewski, J. Gao, N. Rega, 
 G. Zheng, W. Liang, M. Hada, M. Ehara, K. Toyota, R. Fukuda, 
 J. Hasegawa, M. Ishida, T. Nakajima, Y. Honda, O. Kitao, H. Nakai, 
 T. Vreven, K. Throssell, J. A. Montgomery, Jr., J. E. Peralta, 
 F. Ogliaro, M. J. Bearpark, J. J. Heyd, E. N. Brothers, K. N. Kudin, 
 V. N. Staroverov, T. A. Keith, R. Kobayashi, J. Normand, 
 K. Raghavachari, A. P. Rendell, J. C. Burant, S. S. Iyengar, 
 J. Tomasi, M. Cossi, J. M. Millam, M. Klene, C. Adamo, R. Cammi, 
 J. W. Ochterski, R. L. Martin, K. Morokuma, O. Farkas, 
 J. B. Foresman, and D. J. Fox, Gaussian, Inc., Wallingford CT, 2019.
 
 ******************************************
 Gaussian 16:  ES64L-G16RevC.01  3-Jul-2019
                26-Oct-2023 
 ******************************************
 %mem=6GB
 ----------------------------------------------------------------------
 #P blyp/4-21G EmpiricalDispersion(GD3) scf(qc) opt(tight,maxcycle=100)
 ----------------------------------------------------------------------
 1/6=100,7=10,18=20,19=15,26=3,38=1/1,3;
 2/9=110,12=2,17=6,18=5,40=1/2;
 3/5=5,6=4,11=2,25=1,30=1,71=1,74=402,124=31/1,2,3;
 4//1;
 5/5=2,8=3,38=5/8;
 6/7=2,8=2,9=2,10=2,28=1/1;
 7//1,2,3,16;
 1/6=100,7=10,18=20,19=15,26=3/3(2);
 2/9=110/2;
 99//99;
 2/9=110/2;
 3/5=5,6=4,11=2,25=1,30=1,71=1,74=402,124=31/1,2,3;
 4/5=5,16=3,69=1/1;
 5/5=2,8=3,38=5/8;
 7//1,2,3,16;
 1/6=100,7=10,18=20,19=15,26=3/3(-5);
 2/9=110/2;
 6/7=2,8=2,9=2,10=2,19=2,28=1/1;
 99/9=1/99;
 Leave Link    1 at Thu Oct 26 07:51:21 2023, MaxMem=   805306368 cpu:               0.0 elap:               0.0
 (Enter /opt/gaussian/g16/l101.exe)
 ------------------------------
 Gaussian input prepared by ASE
 ------------------------------
 Symbolic Z-matrix:
 Charge =  0 Multiplicity = 1
 C                     4.99881  -0.86854   0.00001 
 N                     3.90744  -1.64214  -0.00001 
 C                     2.8221   -0.72709  -0.00001 
 C                     3.28739   0.61342   0.00001 
 N                     4.68      0.51522   0.00003 
 H                     5.32035   1.31098   0.00004 
 N                     2.56223   1.76838   0.00002 
 C                     1.22231   1.53965   0. 
 N                     0.6635    0.25882  -0.00003 
 C                     1.40705  -0.96389  -0.00003 
 O                     0.80217  -2.09024  -0.00004 
 N                     0.36456   2.59655   0.00001 
 H                     6.02513  -1.21696   0.00002 
 H                    -0.39538   0.1545   -0.00002 
 H                     0.79168   3.52358   0.00001 
 H                    -0.67341   2.49289  -0.00002 
 C                    -4.16166  -1.47379   0.00001 
 C                    -4.93205  -0.34242   0.00002 
 N                    -4.34225   0.90586   0.00001 
 C                    -2.90834   1.08048  -0.00001 
 O                    -2.45108   2.2625   -0.00004 
 N                    -2.14314  -0.06712   0.00002 
 C                    -2.71412  -1.31196   0.00002 
 N                    -1.88834  -2.37544   0.00002 
 H                    -4.89752   1.76649   0.00001 
 H                    -4.61503  -2.46197  -0.00002 
 H                    -6.02121  -0.37268   0. 
 H                    -0.82182  -2.24987   0. 
 H                    -2.27837  -3.321     0.00001 
 
 Add virtual bond connecting atoms N22        and H14        Dist= 3.33D+00.
 Add virtual bond connecting atoms H28        and O11        Dist= 3.08D+00.
 ITRead=  0  0  0  0  0  0  0  0  0  0  0  0  0  0  0  0  0  0  0  0
 ITRead=  0  0  0  0  0  0  0  0  0
 MicOpt= -1 -1 -1 -1 -1 -1 -1 -1 -1 -1 -1 -1 -1 -1 -1 -1 -1 -1 -1 -1
 MicOpt= -1 -1 -1 -1 -1 -1 -1 -1 -1
 NAtoms=     29 NQM=       29 NQMF=       0 NMMI=      0 NMMIF=      0
                NMic=       0 NMicF=      0.
                    Isotopes and Nuclear Properties:
 (Nuclear quadrupole moments (NQMom) in fm**2, nuclear magnetic moments (NMagM)
  in nuclear magnetons)

  Atom         1           2           3           4           5           6           7           8           9          10
 IAtWgt=          12          14          12          12          14           1          14          12          14          12
 AtmWgt=  12.0000000  14.0030740  12.0000000  12.0000000  14.0030740   1.0078250  14.0030740  12.0000000  14.0030740  12.0000000
 NucSpn=           0           2           0           0           2           1           2           0           2           0
 AtZEff=  -0.0000000  -0.0000000  -0.0000000  -0.0000000  -0.0000000  -0.0000000  -0.0000000  -0.0000000  -0.0000000  -0.0000000
 NQMom=    0.0000000   2.0440000   0.0000000   0.0000000   2.0440000   0.0000000   2.0440000   0.0000000   2.0440000   0.0000000
 NMagM=    0.0000000   0.4037610   0.0000000   0.0000000   0.4037610   2.7928460   0.4037610   0.0000000   0.4037610   0.0000000
 AtZNuc=   6.0000000   7.0000000   6.0000000   6.0000000   7.0000000   1.0000000   7.0000000   6.0000000   7.0000000   6.0000000

  Atom        11          12          13          14          15          16          17          18          19          20
 IAtWgt=          16          14           1           1           1           1          12          12          14          12
 AtmWgt=  15.9949146  14.0030740   1.0078250   1.0078250   1.0078250   1.0078250  12.0000000  12.0000000  14.0030740  12.0000000
 NucSpn=           0           2           1           1           1           1           0           0           2           0
 AtZEff=  -0.0000000  -0.0000000  -0.0000000  -0.0000000  -0.0000000  -0.0000000  -0.0000000  -0.0000000  -0.0000000  -0.0000000
 NQMom=    0.0000000   2.0440000   0.0000000   0.0000000   0.0000000   0.0000000   0.0000000   0.0000000   2.0440000   0.0000000
 NMagM=    0.0000000   0.4037610   2.7928460   2.7928460   2.7928460   2.7928460   0.0000000   0.0000000   0.4037610   0.0000000
 AtZNuc=   8.0000000   7.0000000   1.0000000   1.0000000   1.0000000   1.0000000   6.0000000   6.0000000   7.0000000   6.0000000

  Atom        21          22          23          24          25          26          27          28          29
 IAtWgt=          16          14          12          14           1           1           1           1           1
 AtmWgt=  15.9949146  14.0030740  12.0000000  14.0030740   1.0078250   1.0078250   1.0078250   1.0078250   1.0078250
 NucSpn=           0           2           0           2           1           1           1           1           1
 AtZEff=  -0.0000000  -0.0000000  -0.0000000  -0.0000000  -0.0000000  -0.0000000  -0.0000000  -0.0000000  -0.0000000
 NQMom=    0.0000000   2.0440000   0.0000000   2.0440000   0.0000000   0.0000000   0.0000000   0.0000000   0.0000000
 NMagM=    0.0000000   0.4037610   0.0000000   0.4037610   2.7928460   2.7928460   2.7928460   2.7928460   2.7928460
 AtZNuc=   8.0000000   7.0000000   6.0000000   7.0000000   1.0000000   1.0000000   1.0000000   1.0000000   1.0000000
 Leave Link  101 at Thu Oct 26 07:51:21 2023, MaxMem=   805306368 cpu:               0.3 elap:               0.3
 (Enter /opt/gaussian/g16/l103.exe)

 GradGradGradGradGradGradGradGradGradGradGradGradGradGradGradGradGradGrad
 Berny optimization.
 Initialization pass.
                           ----------------------------
                           !    Initial Parameters    !
                           ! (Angstroms and Degrees)  !
 --------------------------                            --------------------------
 ! Name  Definition              Value          Derivative Info.                !
 --------------------------------------------------------------------------------
 ! R1    R(1,2)                  1.3377         estimate D2E/DX2                !
 ! R2    R(1,5)                  1.42           estimate D2E/DX2                !
 ! R3    R(1,13)                 1.0838         estimate D2E/DX2                !
 ! R4    R(2,3)                  1.4196         estimate D2E/DX2                !
 ! R5    R(3,4)                  1.419          estimate D2E/DX2                !
 ! R6    R(3,10)                 1.4347         estimate D2E/DX2                !
 ! R7    R(4,5)                  1.3961         estimate D2E/DX2                !
 ! R8    R(4,7)                  1.3637         estimate D2E/DX2                !
 ! R9    R(5,6)                  1.0214         estimate D2E/DX2                !
 ! R10   R(7,8)                  1.3593         estimate D2E/DX2                !
 ! R11   R(8,9)                  1.3974         estimate D2E/DX2                !
 ! R12   R(8,12)                 1.3612         estimate D2E/DX2                !
 ! R13   R(9,10)                 1.431          estimate D2E/DX2                !
 ! R14   R(9,14)                 1.064          estimate D2E/DX2                !
 ! R15   R(10,11)                1.2785         estimate D2E/DX2                !
 ! R16   R(11,28)                1.6318         estimate D2E/DX2                !
 ! R17   R(12,15)                1.0207         estimate D2E/DX2                !
 ! R18   R(12,16)                1.0431         estimate D2E/DX2                !
 ! R19   R(14,22)                1.7618         estimate D2E/DX2                !
 ! R20   R(17,18)                1.3688         estimate D2E/DX2                !
 ! R21   R(17,23)                1.4566         estimate D2E/DX2                !
 ! R22   R(17,26)                1.0872         estimate D2E/DX2                !
 ! R23   R(18,19)                1.3806         estimate D2E/DX2                !
 ! R24   R(18,27)                1.0896         estimate D2E/DX2                !
 ! R25   R(19,20)                1.4445         estimate D2E/DX2                !
 ! R26   R(19,25)                1.0242         estimate D2E/DX2                !
 ! R27   R(20,21)                1.2674         estimate D2E/DX2                !
 ! R28   R(20,22)                1.3793         estimate D2E/DX2                !
 ! R29   R(22,23)                1.3695         estimate D2E/DX2                !
 ! R30   R(23,24)                1.3464         estimate D2E/DX2                !
 ! R31   R(24,28)                1.0739         estimate D2E/DX2                !
 ! R32   R(24,29)                1.0228         estimate D2E/DX2                !
 ! A1    A(2,1,5)              112.3559         estimate D2E/DX2                !
 ! A2    A(2,1,13)             125.918          estimate D2E/DX2                !
 ! A3    A(5,1,13)             121.7261         estimate D2E/DX2                !
 ! A4    A(1,2,3)              104.5358         estimate D2E/DX2                !
 ! A5    A(2,3,4)              110.9922         estimate D2E/DX2                !
 ! A6    A(2,3,10)             130.3662         estimate D2E/DX2                !
 ! A7    A(4,3,10)             118.6416         estimate D2E/DX2                !
 ! A8    A(3,4,5)              105.1084         estimate D2E/DX2                !
 ! A9    A(3,4,7)              128.7351         estimate D2E/DX2                !
 ! A10   A(5,4,7)              126.1564         estimate D2E/DX2                !
 ! A11   A(1,5,4)              107.0077         estimate D2E/DX2                !
 ! A12   A(1,5,6)              128.202          estimate D2E/DX2                !
 ! A13   A(4,5,6)              124.7903         estimate D2E/DX2                !
 ! A14   A(4,7,8)              112.4356         estimate D2E/DX2                !
 ! A15   A(7,8,9)              123.2585         estimate D2E/DX2                !
 ! A16   A(7,8,12)             119.3743         estimate D2E/DX2                !
 ! A17   A(9,8,12)             117.3672         estimate D2E/DX2                !
 ! A18   A(8,9,10)             125.1242         estimate D2E/DX2                !
 ! A19   A(8,9,14)             119.1975         estimate D2E/DX2                !
 ! A20   A(10,9,14)            115.6783         estimate D2E/DX2                !
 ! A21   A(3,10,9)             111.805          estimate D2E/DX2                !
 ! A22   A(3,10,11)            127.7365         estimate D2E/DX2                !
 ! A23   A(9,10,11)            120.4586         estimate D2E/DX2                !
 ! A24   A(10,11,28)           123.8505         estimate D2E/DX2                !
 ! A25   A(8,12,15)            116.2011         estimate D2E/DX2                !
 ! A26   A(8,12,16)            123.3585         estimate D2E/DX2                !
 ! A27   A(15,12,16)           120.4405         estimate D2E/DX2                !
 ! A28   A(18,17,23)           117.8737         estimate D2E/DX2                !
 ! A29   A(18,17,26)           121.102          estimate D2E/DX2                !
 ! A30   A(23,17,26)           121.0243         estimate D2E/DX2                !
 ! A31   A(17,18,19)           120.4572         estimate D2E/DX2                !
 ! A32   A(17,18,27)           122.6611         estimate D2E/DX2                !
 ! A33   A(19,18,27)           116.8817         estimate D2E/DX2                !
 ! A34   A(18,19,20)           122.2334         estimate D2E/DX2                !
 ! A35   A(18,19,25)           121.8798         estimate D2E/DX2                !
 ! A36   A(20,19,25)           115.8868         estimate D2E/DX2                !
 ! A37   A(19,20,21)           118.0918         estimate D2E/DX2                !
 ! A38   A(19,20,22)           116.7519         estimate D2E/DX2                !
 ! A39   A(21,20,22)           125.1563         estimate D2E/DX2                !
 ! A40   A(14,22,20)           116.4684         estimate D2E/DX2                !
 ! A41   A(14,22,23)           121.8666         estimate D2E/DX2                !
 ! A42   A(20,22,23)           121.6651         estimate D2E/DX2                !
 ! A43   A(17,23,22)           121.0187         estimate D2E/DX2                !
 ! A44   A(17,23,24)           121.4503         estimate D2E/DX2                !
 ! A45   A(22,23,24)           117.531          estimate D2E/DX2                !
 ! A46   A(23,24,28)           121.1141         estimate D2E/DX2                !
 ! A47   A(23,24,29)           119.7554         estimate D2E/DX2                !
 ! A48   A(28,24,29)           119.1305         estimate D2E/DX2                !
 ! A49   L(9,14,22,11,-1)      178.3998         estimate D2E/DX2                !
 ! A50   L(11,28,24,12,-1)     181.1012         estimate D2E/DX2                !
 ! A51   L(9,14,22,11,-2)      179.9989         estimate D2E/DX2                !
 ! A52   L(11,28,24,12,-2)     179.9997         estimate D2E/DX2                !
 ! D1    D(5,1,2,3)              0.0            estimate D2E/DX2                !
 ! D2    D(13,1,2,3)          -180.0            estimate D2E/DX2                !
 ! D3    D(2,1,5,4)              0.0            estimate D2E/DX2                !
 ! D4    D(2,1,5,6)           -179.999          estimate D2E/DX2                !
 ! D5    D(13,1,5,4)           179.9999         estimate D2E/DX2                !
 ! D6    D(13,1,5,6)             0.001          estimate D2E/DX2                !
 ! D7    D(1,2,3,4)              0.0001         estimate D2E/DX2                !
 ! D8    D(1,2,3,10)          -179.9995         estimate D2E/DX2                !
 ! D9    D(2,3,4,5)             -0.0001         estimate D2E/DX2                !
 ! D10   D(2,3,4,7)            180.0            estimate D2E/DX2                !
 ! D11   D(10,3,4,5)           179.9995         estimate D2E/DX2                !
 ! D12   D(10,3,4,7)            -0.0004         estimate D2E/DX2                !
 ! D13   D(2,3,10,9)          -179.9996         estimate D2E/DX2                !
 ! D14   D(2,3,10,11)            0.0001         estimate D2E/DX2                !
 ! D15   D(4,3,10,9)             0.0009         estimate D2E/DX2                !
 ! D16   D(4,3,10,11)         -179.9995         estimate D2E/DX2                !
 ! D17   D(3,4,5,1)              0.0001         estimate D2E/DX2                !
 ! D18   D(3,4,5,6)            179.9991         estimate D2E/DX2                !
 ! D19   D(7,4,5,1)           -180.0            estimate D2E/DX2                !
 ! D20   D(7,4,5,6)             -0.001          estimate D2E/DX2                !
 ! D21   D(3,4,7,8)              0.0            estimate D2E/DX2                !
 ! D22   D(5,4,7,8)           -179.9999         estimate D2E/DX2                !
 ! D23   D(4,7,8,9)             -0.0003         estimate D2E/DX2                !
 ! D24   D(4,7,8,12)          -179.9999         estimate D2E/DX2                !
 ! D25   D(7,8,9,10)             0.0009         estimate D2E/DX2                !
 ! D26   D(7,8,9,14)           179.9988         estimate D2E/DX2                !
 ! D27   D(12,8,9,10)         -179.9994         estimate D2E/DX2                !
 ! D28   D(12,8,9,14)           -0.0015         estimate D2E/DX2                !
 ! D29   D(7,8,12,15)            0.001          estimate D2E/DX2                !
 ! D30   D(7,8,12,16)          179.9995         estimate D2E/DX2                !
 ! D31   D(9,8,12,15)         -179.9987         estimate D2E/DX2                !
 ! D32   D(9,8,12,16)           -0.0002         estimate D2E/DX2                !
 ! D33   D(8,9,10,3)            -0.0012         estimate D2E/DX2                !
 ! D34   D(8,9,10,11)          179.9992         estimate D2E/DX2                !
 ! D35   D(14,9,10,3)         -179.9991         estimate D2E/DX2                !
 ! D36   D(14,9,10,11)           0.0012         estimate D2E/DX2                !
 ! D37   D(8,9,22,20)            0.0035         estimate D2E/DX2                !
 ! D38   D(8,9,22,23)         -179.9984         estimate D2E/DX2                !
 ! D39   D(10,9,22,20)        -179.9991         estimate D2E/DX2                !
 ! D40   D(10,9,22,23)          -0.001          estimate D2E/DX2                !
 ! D41   D(3,10,11,28)         179.9978         estimate D2E/DX2                !
 ! D42   D(9,10,11,28)          -0.0026         estimate D2E/DX2                !
 ! D43   D(10,11,24,23)          0.0024         estimate D2E/DX2                !
 ! D44   D(10,11,24,29)       -179.9998         estimate D2E/DX2                !
 ! D45   D(23,17,18,19)          0.0006         estimate D2E/DX2                !
 ! D46   D(23,17,18,27)        179.9996         estimate D2E/DX2                !
 ! D47   D(26,17,18,19)       -179.9978         estimate D2E/DX2                !
 ! D48   D(26,17,18,27)          0.0011         estimate D2E/DX2                !
 ! D49   D(18,17,23,22)         -0.0006         estimate D2E/DX2                !
 ! D50   D(18,17,23,24)        179.9999         estimate D2E/DX2                !
 ! D51   D(26,17,23,22)        179.9979         estimate D2E/DX2                !
 ! D52   D(26,17,23,24)         -0.0016         estimate D2E/DX2                !
 ! D53   D(17,18,19,20)          0.0003         estimate D2E/DX2                !
 ! D54   D(17,18,19,25)        180.0            estimate D2E/DX2                !
 ! D55   D(27,18,19,20)       -179.9987         estimate D2E/DX2                !
 ! D56   D(27,18,19,25)          0.001          estimate D2E/DX2                !
 ! D57   D(18,19,20,21)        179.9984         estimate D2E/DX2                !
 ! D58   D(18,19,20,22)         -0.0014         estimate D2E/DX2                !
 ! D59   D(25,19,20,21)         -0.0013         estimate D2E/DX2                !
 ! D60   D(25,19,20,22)        179.999          estimate D2E/DX2                !
 ! D61   D(19,20,22,14)        179.9992         estimate D2E/DX2                !
 ! D62   D(19,20,22,23)          0.0014         estimate D2E/DX2                !
 ! D63   D(21,20,22,14)         -0.0006         estimate D2E/DX2                !
 ! D64   D(21,20,22,23)       -179.9983         estimate D2E/DX2                !
 ! D65   D(14,22,23,17)       -179.9982         estimate D2E/DX2                !
 ! D66   D(14,22,23,24)          0.0014         estimate D2E/DX2                !
 ! D67   D(20,22,23,17)         -0.0005         estimate D2E/DX2                !
 ! D68   D(20,22,23,24)        179.999          estimate D2E/DX2                !
 ! D69   D(17,23,24,28)        179.9984         estimate D2E/DX2                !
 ! D70   D(17,23,24,29)          0.0004         estimate D2E/DX2                !
 ! D71   D(22,23,24,28)         -0.0011         estimate D2E/DX2                !
 ! D72   D(22,23,24,29)       -179.9992         estimate D2E/DX2                !
 --------------------------------------------------------------------------------
 Trust Radius=3.00D-01 FncErr=1.00D-07 GrdErr=1.00D-06 EigMax=2.50D+02 EigMin=1.00D-04
 Number of steps in this run=    100 maximum allowed number of steps=    174.
 GradGradGradGradGradGradGradGradGradGradGradGradGradGradGradGradGradGrad

 Leave Link  103 at Thu Oct 26 07:51:21 2023, MaxMem=   805306368 cpu:               0.0 elap:               0.0
 (Enter /opt/gaussian/g16/l202.exe)
                          Input orientation:                          
 ---------------------------------------------------------------------
 Center     Atomic      Atomic             Coordinates (Angstroms)
 Number     Number       Type             X           Y           Z
 ---------------------------------------------------------------------
      1          6           0        4.998813   -0.868538    0.000012
      2          7           0        3.907440   -1.642137   -0.000014
      3          6           0        2.822098   -0.727093   -0.000013
      4          6           0        3.287387    0.613417    0.000012
      5          7           0        4.680001    0.515221    0.000029
      6          1           0        5.320351    1.310982    0.000035
      7          7           0        2.562231    1.768382    0.000020
      8          6           0        1.222309    1.539648    0.000001
      9          7           0        0.663496    0.258815   -0.000029
     10          6           0        1.407048   -0.963885   -0.000025
     11          8           0        0.802171   -2.090243   -0.000038
     12          7           0        0.364561    2.596548    0.000005
     13          1           0        6.025126   -1.216960    0.000019
     14          1           0       -0.395380    0.154498   -0.000023
     15          1           0        0.791677    3.523579    0.000007
     16          1           0       -0.673412    2.492885   -0.000016
     17          6           0       -4.161661   -1.473788    0.000014
     18          6           0       -4.932053   -0.342420    0.000015
     19          7           0       -4.342251    0.905861    0.000009
     20          6           0       -2.908342    1.080476   -0.000005
     21          8           0       -2.451082    2.262497   -0.000041
     22          7           0       -2.143136   -0.067120    0.000017
     23          6           0       -2.714120   -1.311964    0.000021
     24          7           0       -1.888339   -2.375441    0.000022
     25          1           0       -4.897522    1.766487    0.000009
     26          1           0       -4.615034   -2.461966   -0.000017
     27          1           0       -6.021215   -0.372679    0.000003
     28          1           0       -0.821817   -2.249871    0.000002
     29          1           0       -2.278372   -3.321002    0.000012
 ---------------------------------------------------------------------
                    Distance matrix (angstroms):
                    1          2          3          4          5
     1  C    0.000000
     2  N    1.337741   0.000000
     3  C    2.181306   1.419603   0.000000
     4  C    2.263884   2.339228   1.418965   0.000000
     5  N    1.420011   2.291516   2.234983   1.396072   0.000000
     6  H    2.203110   3.273718   3.224131   2.149311   1.021413
     7  N    3.590303   3.666228   2.508969   1.363743   2.460765
     8  C    4.478989   4.163374   2.774426   2.263283   3.606256
     9  N    4.479498   3.759892   2.373094   2.647744   4.024681
    10  C    3.593030   2.590750   1.434725   2.454293   3.591654
    11  O    4.370854   3.137434   2.436859   3.672339   4.671831
    12  N    5.786459   5.524350   4.133531   3.532099   4.791132
    13  H    1.083843   2.159947   3.240271   3.293250   2.193128
    14  H    5.490348   4.662849   3.336071   3.711250   5.088184
    15  H    6.081997   6.032628   4.710714   3.833746   4.916226
    16  H    6.593429   6.171111   4.752562   4.384100   5.707029
    17  C    9.180447   8.070857   7.023563   7.735938   9.062623
    18  C    9.944793   8.934534   7.763687   8.274830   9.650240
    19  N    9.508100   8.634217   7.348091   7.635241   9.030705
    20  C    8.143817   7.339449   6.008764   6.213308   7.609367
    21  O    8.081109   7.461700   6.061689   5.970719   7.342024
    22  N    7.186773   6.252211   5.008903   5.472998   6.847943
    23  C    7.725669   6.629787   5.567026   6.302791   7.616537
    24  N    7.050079   5.841985   4.990518   5.976739   7.176282
    25  H   10.241133   9.441720   8.112366   8.265731   9.658914
    26  H    9.745002   8.561815   7.636800   8.479755   9.760190
    27  H   11.031178  10.009481   8.850412   9.360687  10.737988
    28  H    5.982292   4.768146   3.949300   5.008391   6.157575
    29  H    7.679323   6.409591   5.722164   6.815961   7.945789
                    6          7          8          9         10
     6  H    0.000000
     7  N    2.795790   0.000000
     8  C    4.104417   1.359305   0.000000
     9  N    4.774239   2.425693   1.397428   0.000000
    10  C    4.526473   2.966434   2.510340   1.431036   0.000000
    11  O    5.655288   4.241085   3.654124   2.353148   1.278499
    12  N    5.119818   2.348534   1.361165   2.356768   3.709914
    13  H    2.624347   4.572079   5.537684   5.561024   4.625007
    14  H    5.831555   3.369285   2.129685   1.064002   2.121209
    15  H    5.040285   2.493106   2.030130   3.267279   4.529461
    16  H    6.109181   3.315764   2.121890   2.603534   4.034547
    17  C    9.882484   7.464743   6.169921   5.126798   5.592005
    18  C   10.384870   7.785870   6.435709   5.627757   6.369491
    19  N    9.671091   6.958147   5.600537   5.047393   6.045692
    20  C    8.231921   5.513654   4.156094   3.665127   4.775144
    21  O    7.829467   5.037604   3.743837   3.703422   5.029384
    22  N    7.589651   5.050698   3.729333   2.825494   3.661693
    23  C    8.451779   6.109698   4.860778   3.725002   4.135841
    24  N    8.096600   6.081023   5.000405   3.667583   3.584978
    25  H   10.228021   7.459753   6.124034   5.761770   6.870410
    26  H   10.627653   8.331205   7.077251   5.938479   6.205620
    27  H   11.465855   8.846451   7.491704   6.714473   7.451753
    28  H    7.099711   5.253393   4.305683   2.915418   2.573247
    29  H    8.899206   7.023764   5.990049   4.633538   4.374737
                   11         12         13         14         15
    11  O    0.000000
    12  N    4.707177   0.000000
    13  H    5.295459   6.825309   0.000000
    14  H    2.544207   2.557561   6.565348   0.000000
    15  H    5.613832   1.020693   7.061282   3.572088   0.000000
    16  H    4.814811   1.043137   7.657242   2.354858   1.791317
    17  C    5.001964   6.087226  10.190024   4.103192   7.036280
    18  C    5.994682   6.057364  10.992024   4.563806   6.907028
    19  N    5.953295   5.001250  10.582480   4.017753   5.762783
    20  C    4.880714   3.606989   9.224156   2.678136   4.433835
    21  O    5.434151   2.835390   9.162572   2.944413   3.479341
    22  N    3.573214   3.658370   8.248796   1.761751   4.637483
    23  C    3.601391   4.975414   8.739762   2.743550   5.972695
    24  N    2.705583   5.458593   7.997813   2.937604   6.479269
    25  H    6.881923   5.327149  11.322773   4.782028   5.954356
    26  H    5.429944   7.098234  10.712752   4.965014   8.065933
    27  H    7.036236   7.042332  12.075891   5.650481   7.848333
    28  H    1.631814   4.989516   6.924416   2.441892   5.994672
    29  H    3.317305   6.480933   8.565925   3.952817   7.501566
                   16         17         18         19         20
    16  H    0.000000
    17  C    5.282270   0.000000
    18  C    5.116149   1.368758   0.000000
    19  N    3.997377   2.386492   1.380606   0.000000
    20  C    2.643825   2.845184   2.473871   1.444502   0.000000
    21  O    1.792537   4.109246   3.597334   2.327441   1.267383
    22  N    2.951900   2.460317   2.802472   2.404745   1.379318
    23  C    4.317565   1.456558   2.420587   2.751283   2.400311
    24  N    5.017633   2.445602   3.660242   4.097393   3.603300
    25  H    4.286112   3.322781   2.109190   1.024208   2.104150
    26  H    6.331424   1.087218   2.143123   3.378856   3.932136
    27  H    6.067162   2.161107   1.089582   2.110352   3.435351
    28  H    4.745077   3.428828   4.531270   4.727801   3.929987
    29  H    6.031350   2.637987   3.989232   4.703825   4.446332
                   21         22         23         24         25
    21  O    0.000000
    22  N    2.349882   0.000000
    23  C    3.584126   1.369547   0.000000
    24  N    4.671953   2.322341   1.346439   0.000000
    25  H    2.496216   3.308891   3.774136   5.119644   0.000000
    26  H    5.196464   3.441739   2.221706   2.728067   4.237879
    27  H    4.437342   3.890098   3.437897   4.592572   2.416344
    28  H    4.797496   2.551526   2.111985   1.073889   5.722107
    29  H    5.586170   3.256691   2.055750   1.022845   5.722105
                   26         27         28         29
    26  H    0.000000
    27  H    2.518425   0.000000
    28  H    3.799142   5.527892   0.000000
    29  H    2.489565   4.764607   1.808003   0.000000
 Stoichiometry    C9H10N8O2
 Framework group  C1[X(C9H10N8O2)]
 Deg. of freedom    81
 Full point group                 C1      NOp   1
 Largest Abelian subgroup         C1      NOp   1
 Largest concise Abelian subgroup C1      NOp   1
                         Standard orientation:                         
 ---------------------------------------------------------------------
 Center     Atomic      Atomic             Coordinates (Angstroms)
 Number     Number       Type             X           Y           Z
 ---------------------------------------------------------------------
      1          6           0        4.998813   -0.868538    0.000012
      2          7           0        3.907440   -1.642137   -0.000014
      3          6           0        2.822098   -0.727093   -0.000013
      4          6           0        3.287387    0.613417    0.000012
      5          7           0        4.680001    0.515221    0.000029
      6          1           0        5.320351    1.310982    0.000035
      7          7           0        2.562231    1.768382    0.000020
      8          6           0        1.222309    1.539648    0.000001
      9          7           0        0.663496    0.258815   -0.000029
     10          6           0        1.407048   -0.963885   -0.000025
     11          8           0        0.802171   -2.090243   -0.000038
     12          7           0        0.364561    2.596548    0.000005
     13          1           0        6.025126   -1.216960    0.000019
     14          1           0       -0.395380    0.154498   -0.000023
     15          1           0        0.791677    3.523579    0.000007
     16          1           0       -0.673412    2.492885   -0.000016
     17          6           0       -4.161661   -1.473788    0.000014
     18          6           0       -4.932053   -0.342420    0.000015
     19          7           0       -4.342251    0.905861    0.000009
     20          6           0       -2.908342    1.080476   -0.000005
     21          8           0       -2.451082    2.262497   -0.000041
     22          7           0       -2.143136   -0.067120    0.000017
     23          6           0       -2.714120   -1.311964    0.000021
     24          7           0       -1.888339   -2.375441    0.000022
     25          1           0       -4.897522    1.766487    0.000009
     26          1           0       -4.615034   -2.461966   -0.000017
     27          1           0       -6.021215   -0.372679    0.000003
     28          1           0       -0.821817   -2.249871    0.000002
     29          1           0       -2.278372   -3.321002    0.000012
 ---------------------------------------------------------------------
 Rotational constants (GHZ):           0.8535276           0.2008738           0.1626054
 Leave Link  202 at Thu Oct 26 07:51:21 2023, MaxMem=   805306368 cpu:               0.0 elap:               0.0
 (Enter /opt/gaussian/g16/l301.exe)
 Standard basis: 4-21G (6D, 7F)
 Ernie: Thresh=  0.10000D-02 Tol=  0.10000D-05 Strict=F.
 There are   191 symmetry adapted cartesian basis functions of A   symmetry.
 There are   191 symmetry adapted basis functions of A   symmetry.
   191 basis functions,   334 primitive gaussians,   191 cartesian basis functions
    68 alpha electrons       68 beta electrons
       nuclear repulsion energy      1376.5474839355 Hartrees.
 IExCor=  402 DFT=T Ex=B Corr=LYP ExCW=0 ScaHFX=  0.000000
 ScaDFX=  1.000000  1.000000  1.000000  1.000000 ScalE2=  1.000000  1.000000
 IRadAn=      5 IRanWt=     -1 IRanGd=            0 ICorTp=0 IEmpDi=131
 NAtoms=   29 NActive=   29 NUniq=   29 SFac= 1.00D+00 NAtFMM=   60 NAOKFM=F Big=F
 Integral buffers will be    131072 words long.
 Raffenetti 2 integral format.
 Two-electron integral symmetry is turned on.
 R6Disp:  Grimme-D3 Dispersion energy=       -0.0321927447 Hartrees.
 Nuclear repulsion after empirical dispersion term =     1376.5152911908 Hartrees.
 Leave Link  301 at Thu Oct 26 07:51:21 2023, MaxMem=   805306368 cpu:               0.0 elap:               0.0
 (Enter /opt/gaussian/g16/l302.exe)
 NPDir=0 NMtPBC=     1 NCelOv=     1 NCel=       1 NClECP=     1 NCelD=      1
         NCelK=      1 NCelE2=     1 NClLst=     1 CellRange=     0.0.
 One-electron integrals computed using PRISM.
 One-electron integral symmetry used in STVInt
 NBasis=   191 RedAO= T EigKep=  4.15D-03  NBF=   191
 NBsUse=   191 1.00D-06 EigRej= -1.00D+00 NBFU=   191
 Precomputing XC quadrature grid using
 IXCGrd= 4 IRadAn=           5 IRanWt=          -1 IRanGd=           0 AccXCQ= 0.00D+00.
 Generated NRdTot=       0 NPtTot=           0 NUsed=           0 NTot=          32
 NSgBfM=   187   187   187   187   187 MxSgAt=    29 MxSgA2=    29.
 Leave Link  302 at Thu Oct 26 07:51:22 2023, MaxMem=   805306368 cpu:               0.6 elap:               0.7
 (Enter /opt/gaussian/g16/l303.exe)
 DipDrv:  MaxL=1.
 Leave Link  303 at Thu Oct 26 07:51:22 2023, MaxMem=   805306368 cpu:               0.0 elap:               0.0
 (Enter /opt/gaussian/g16/l401.exe)
 ExpMin= 1.83D-01 ExpMax= 9.38D+02 ExpMxC= 9.38D+02 IAcc=3 IRadAn=         5 AccDes= 0.00D+00
 Harris functional with IExCor=  402 and IRadAn=       5 diagonalized for initial guess.
 HarFok:  IExCor=  402 AccDes= 0.00D+00 IRadAn=         5 IDoV= 1 UseB2=F ITyADJ=14
 ICtDFT=  3500011 ScaDFX=  1.000000  1.000000  1.000000  1.000000
 FoFCou: FMM=F IPFlag=           0 FMFlag=      100000 FMFlg1=           0
         NFxFlg=           0 DoJE=T BraDBF=F KetDBF=T FulRan=T
         wScrn=  0.000000 ICntrl=       500 IOpCl=  0 I1Cent=   200000004 NGrid=           0
         NMat0=    1 NMatS0=      1 NMatT0=    0 NMatD0=    1 NMtDS0=    0 NMtDT0=    0
 Petite list used in FoFCou.
 Harris En= -935.428086689199    
 JPrj=0 DoOrth=F DoCkMO=F.
 Leave Link  401 at Thu Oct 26 07:51:26 2023, MaxMem=   805306368 cpu:               4.1 elap:               4.1
 (Enter /opt/gaussian/g16/l508.exe)
 Keep J ints in memory in canonical form, NReq=171655065.
 FoFCou: FMM=F IPFlag=           0 FMFlag=           0 FMFlg1=           0
         NFxFlg=           0 DoJE=F BraDBF=F KetDBF=F FulRan=T
         wScrn=  0.000000 ICntrl=       600 IOpCl=  0 I1Cent=           0 NGrid=           0
         NMat0=    1 NMatS0=  18336 NMatT0=    0 NMatD0=    1 NMtDS0=    0 NMtDT0=    0
 Symmetry not used in FoFCou.
 Two-electron integral symmetry not used.
 Tight linear equation convergence will be used.
 RB-LYP wavefunction.
 Quadratic Convergence SCF Method.
 Line search only if initial step raises energy.
 Iteration   1 EE= -934.945853099492                                    Grad=8.932D-01 Max rot=    5.7921 deg.
 Gradient too large for Newton-Raphson -- use scaled steepest descent instead.
 Alpha Gap=     0.035 HL deriv= 2.82D-03
     ILin= 1 X=0.000D+00 Y=-9.349458530995D+02 DE= 0.00D+00 F= -2.26D+00
     ILin= 2 X=3.000D-01 Y=-9.352579103569D+02 DE=-3.12D-01 F=  2.39D-01 OKLS=T
     Accept linear search using points  1 and  2.
     An  expanding polynomial of degree  2 produced  0.1432
 Iteration   2 EE= -935.188485964175     Delta-E=       -0.242632864683 Grad=4.832D-01 Max rot=    2.7302 deg.
 Gradient too large for Newton-Raphson -- use scaled steepest descent instead.
 Alpha Gap=     0.066 HL deriv= 1.49D-03
     ILin= 1 X=0.000D+00 Y=-9.351884859642D+02 DE= 0.00D+00 F= -5.52D-01
     ILin= 2 X=3.000D-01 Y=-9.352808755394D+02 DE=-9.24D-02 F= -6.14D-02 OKLS=F
     ILin= 3 X=4.000D-01 Y=-9.352787035931D+02 DE=-9.02D-02 F=  1.05D-01
     An  expanding polynomial of degree  3 produced  0.3368
 Iteration   3 EE= -935.282011175488     Delta-E=       -0.093525211313 Grad=1.465D-01 Max rot=    0.6109 deg.
 Gradient too large for Newton-Raphson -- use scaled steepest descent instead.
 Alpha Gap=     0.084 HL deriv= 2.43D-03
     ILin= 1 X=0.000D+00 Y=-9.352820111755D+02 DE= 0.00D+00 F= -4.44D-02
     ILin= 2 X=2.000D-01 Y=-9.352884081943D+02 DE=-6.40D-03 F= -1.95D-02 OKLS=F
     ILin= 3 X=4.000D-01 Y=-9.352898374995D+02 DE=-7.83D-03 F=  5.23D-03
     Accept linear search using points  2 and  3.
     An  expanding polynomial of degree  3 produced  0.2870
 Iteration   4 EE= -935.289639154179     Delta-E=       -0.007627978691 Grad=6.970D-02 Max rot=    0.2798 deg.
 Gradient too large for Newton-Raphson -- use scaled steepest descent instead.
 Alpha Gap=     0.081 HL deriv= 4.25D-06
     ILin= 1 X=0.000D+00 Y=-9.352896391542D+02 DE= 0.00D+00 F= -8.39D-03
     ILin= 2 X=3.000D-01 Y=-9.352915102253D+02 DE=-1.87D-03 F= -4.08D-03 OKLS=F
     ILin= 3 X=7.000D-01 Y=-9.352919864667D+02 DE=-2.35D-03 F=  1.70D-03
     Accept linear search using points  2 and  3.
     An  expanding polynomial of degree  3 produced  0.5089
 Iteration   5 EE= -935.292047151381     Delta-E=       -0.002407997201 Grad=3.384D-02 Max rot=    0.1784 deg.
 Gradient too large for Newton-Raphson -- use scaled steepest descent instead.
 Alpha Gap=     0.083 HL deriv= 1.27D-03
     ILin= 1 X=0.000D+00 Y=-9.352920471514D+02 DE= 0.00D+00 F= -2.23D-03
     ILin= 2 X=4.000D-01 Y=-9.352923900531D+02 DE=-3.43D-04 F=  5.19D-04 OKLS=T
     Accept linear search using points  1 and  2.
     An  expanding polynomial of degree  2 produced  0.2148
 Iteration   6 EE= -935.292368224026     Delta-E=       -0.000321072646 Grad=2.042D-02 Max rot=    0.0997 deg.
 Gradient too large for Newton-Raphson -- use scaled steepest descent instead.
 Alpha Gap=     0.083 HL deriv= 4.42D-04
     ILin= 1 X=0.000D+00 Y=-9.352923682240D+02 DE= 0.00D+00 F= -5.10D-04
     ILin= 2 X=5.000D-01 Y=-9.352925475503D+02 DE=-1.79D-04 F= -2.08D-04 OKLS=F
     ILin= 3 X=1.000D+00 Y=-9.352925758517D+02 DE=-2.08D-04 F=  9.44D-05
     Accept linear search using points  2 and  3.
     An  expanding polynomial of degree  3 produced  0.7748
 Iteration   7 EE= -935.292581793856     Delta-E=       -0.000213569830 Grad=4.549D-03 Max rot=    0.0201 deg.
 QCNR:  CnvC1=1.29D-08 CnvC2=1.29D-07
 LinEq1:  Iter=  0 NonCon=     1 RMS=6.91D-05 Max=3.12D-03 NDo=     1
 AX will form     1 AO Fock derivatives at one time.
 LinEq1:  Iter=  1 NonCon=     1 RMS=8.48D-05 Max=1.93D-03 NDo=     1
 LinEq1:  Iter=  2 NonCon=     1 RMS=3.92D-05 Max=1.36D-03 NDo=     1
 LinEq1:  Iter=  3 NonCon=     1 RMS=2.47D-05 Max=6.50D-04 NDo=     1
 LinEq1:  Iter=  4 NonCon=     1 RMS=2.58D-05 Max=1.01D-03 NDo=     1
 LinEq1:  Iter=  5 NonCon=     1 RMS=2.59D-05 Max=7.81D-04 NDo=     1
 LinEq1:  Iter=  6 NonCon=     1 RMS=1.90D-05 Max=5.62D-04 NDo=     1
 LinEq1:  Iter=  7 NonCon=     1 RMS=1.07D-05 Max=2.12D-04 NDo=     1
 LinEq1:  Iter=  8 NonCon=     1 RMS=8.01D-06 Max=1.73D-04 NDo=     1
 LinEq1:  Iter=  9 NonCon=     1 RMS=4.54D-06 Max=9.06D-05 NDo=     1
 LinEq1:  Iter= 10 NonCon=     1 RMS=4.20D-06 Max=1.07D-04 NDo=     1
 LinEq1:  Iter= 11 NonCon=     1 RMS=3.17D-06 Max=7.57D-05 NDo=     1
 LinEq1:  Iter= 12 NonCon=     1 RMS=2.63D-06 Max=8.68D-05 NDo=     1
 LinEq1:  Iter= 13 NonCon=     1 RMS=2.07D-06 Max=6.83D-05 NDo=     1
 LinEq1:  Iter= 14 NonCon=     1 RMS=1.63D-06 Max=3.05D-05 NDo=     1
 LinEq1:  Iter= 15 NonCon=     1 RMS=1.21D-06 Max=4.96D-05 NDo=     1
 LinEq1:  Iter= 16 NonCon=     1 RMS=9.72D-07 Max=2.04D-05 NDo=     1
 LinEq1:  Iter= 17 NonCon=     1 RMS=3.92D-07 Max=9.88D-06 NDo=     1
 LinEq1:  Iter= 18 NonCon=     1 RMS=3.03D-07 Max=7.14D-06 NDo=     1
 LinEq1:  Iter= 19 NonCon=     1 RMS=2.55D-07 Max=6.87D-06 NDo=     1
 LinEq1:  Iter= 20 NonCon=     1 RMS=1.41D-07 Max=3.00D-06 NDo=     1
 LinEq1:  Iter= 21 NonCon=     1 RMS=8.00D-08 Max=1.41D-06 NDo=     1
 LinEq1:  Iter= 22 NonCon=     1 RMS=3.07D-08 Max=4.65D-07 NDo=     1
 LinEq1:  Iter= 23 NonCon=     1 RMS=1.88D-08 Max=4.34D-07 NDo=     1
 LinEq1:  Iter= 24 NonCon=     0 RMS=6.95D-09 Max=9.52D-08 NDo=     1
 Linear equations converged to 1.293D-08 1.293D-07 after    24 iterations.
 Angle between quadratic step and gradient=  53.25 degrees.
     ILin= 1 X=0.000D+00 Y=-9.352925817939D+02 DE= 0.00D+00 F= -2.12D-05
     ILin= 2 X=1.000D+00 Y=-9.352925923853D+02 DE=-1.06D-05 F=  1.69D-08 OKLS=T
     Accept linear search using points  1 and  2.
     An  expanding polynomial of degree  2 produced  0.9992
     Minimum is close to point  2 DX= -7.96D-04 DF= -6.71D-12 DXR=  7.97D-04 DFR=  6.33D-07 which will be used.
 Iteration   8 EE= -935.292592385280     Delta-E=       -0.000010591424 Grad=3.657D-06 Max rot=    0.0000 deg.
 QCNR:  CnvC1=3.66D-11 CnvC2=3.66D-10
 LinEq1:  Iter=  0 NonCon=     1 RMS=9.29D-08 Max=3.55D-06 NDo=     1
 LinEq1:  Iter=  1 NonCon=     1 RMS=1.34D-07 Max=4.38D-06 NDo=     1
 LinEq1:  Iter=  2 NonCon=     1 RMS=7.16D-08 Max=2.34D-06 NDo=     1
 LinEq1:  Iter=  3 NonCon=     1 RMS=3.81D-08 Max=1.43D-06 NDo=     1
 LinEq1:  Iter=  4 NonCon=     1 RMS=4.25D-08 Max=1.63D-06 NDo=     1
 LinEq1:  Iter=  5 NonCon=     1 RMS=2.92D-08 Max=6.31D-07 NDo=     1
 LinEq1:  Iter=  6 NonCon=     1 RMS=2.64D-08 Max=5.56D-07 NDo=     1
 LinEq1:  Iter=  7 NonCon=     1 RMS=2.48D-08 Max=7.57D-07 NDo=     1
 LinEq1:  Iter=  8 NonCon=     1 RMS=2.21D-08 Max=6.10D-07 NDo=     1
 LinEq1:  Iter=  9 NonCon=     1 RMS=1.74D-08 Max=4.69D-07 NDo=     1
 LinEq1:  Iter= 10 NonCon=     1 RMS=1.20D-08 Max=2.98D-07 NDo=     1
 LinEq1:  Iter= 11 NonCon=     1 RMS=9.25D-09 Max=2.34D-07 NDo=     1
 LinEq1:  Iter= 12 NonCon=     1 RMS=5.50D-09 Max=1.49D-07 NDo=     1
 LinEq1:  Iter= 13 NonCon=     1 RMS=6.26D-09 Max=1.82D-07 NDo=     1
 LinEq1:  Iter= 14 NonCon=     1 RMS=4.50D-09 Max=1.78D-07 NDo=     1
 LinEq1:  Iter= 15 NonCon=     1 RMS=2.96D-09 Max=6.01D-08 NDo=     1
 LinEq1:  Iter= 16 NonCon=     1 RMS=1.86D-09 Max=4.86D-08 NDo=     1
 LinEq1:  Iter= 17 NonCon=     1 RMS=1.52D-09 Max=4.27D-08 NDo=     1
 LinEq1:  Iter= 18 NonCon=     1 RMS=9.86D-10 Max=2.32D-08 NDo=     1
 LinEq1:  Iter= 19 NonCon=     1 RMS=1.03D-09 Max=2.53D-08 NDo=     1
 LinEq1:  Iter= 20 NonCon=     1 RMS=3.27D-10 Max=9.57D-09 NDo=     1
 LinEq1:  Iter= 21 NonCon=     1 RMS=2.94D-10 Max=6.33D-09 NDo=     1
 LinEq1:  Iter= 22 NonCon=     1 RMS=7.84D-11 Max=1.66D-09 NDo=     1
 LinEq1:  Iter= 23 NonCon=     1 RMS=6.41D-11 Max=1.22D-09 NDo=     1
 LinEq1:  Iter= 24 NonCon=     1 RMS=2.03D-11 Max=7.04D-10 NDo=     1
 LinEq1:  Iter= 25 NonCon=     1 RMS=1.74D-11 Max=4.05D-10 NDo=     1
 LinEq1:  Iter= 26 NonCon=     0 RMS=5.66D-12 Max=1.53D-10 NDo=     1
 Linear equations converged to 3.657D-11 3.657D-10 after    26 iterations.
 Angle between quadratic step and gradient=  46.11 degrees.
     ILin= 1 X=0.000D+00 Y=-9.352925923853D+02 DE= 0.00D+00 F= -4.13D-11
     ILin= 2 X=1.000D+00 Y=-9.352925923853D+02 DE=-1.91D-11
 Iteration   9 EE= -935.292592385299     Delta-E=       -0.000000000019 Grad=4.013D-11 Max rot=    0.0000 deg.
 Rotation gradient small -- convergence achieved.
 SCF Done:  E(RB-LYP) =  -935.292592385     a.u. after    9 cycles
            Convg  =    0.4013D-10                    69 Fock formations.
              S**2 =  0.0000                  -V/T =  2.0062
 Leave Link  508 at Thu Oct 26 07:58:26 2023, MaxMem=   805306368 cpu:             419.6 elap:             419.8
 (Enter /opt/gaussian/g16/l601.exe)
 Copying SCF densities to generalized density rwf, IOpCl= 0 IROHF=0.

 **********************************************************************

            Population analysis using the SCF Density.

 **********************************************************************

 Orbital symmetries:
       Occupied  (A) (A) (A) (A) (A) (A) (A) (A) (A) (A) (A) (A)
                 (A) (A) (A) (A) (A) (A) (A) (A) (A) (A) (A) (A)
                 (A) (A) (A) (A) (A) (A) (A) (A) (A) (A) (A) (A)
                 (A) (A) (A) (A) (A) (A) (A) (A) (A) (A) (A) (A)
                 (A) (A) (A) (A) (A) (A) (A) (A) (A) (A) (A) (A)
                 (A) (A) (A) (A) (A) (A) (A) (A)
       Virtual   (A) (A) (A) (A) (A) (A) (A) (A) (A) (A) (A) (A)
                 (A) (A) (A) (A) (A) (A) (A) (A) (A) (A) (A) (A)
                 (A) (A) (A) (A) (A) (A) (A) (A) (A) (A) (A) (A)
                 (A) (A) (A) (A) (A) (A) (A) (A) (A) (A) (A) (A)
                 (A) (A) (A) (A) (A) (A) (A) (A) (A) (A) (A) (A)
                 (A) (A) (A) (A) (A) (A) (A) (A) (A) (A) (A) (A)
                 (A) (A) (A) (A) (A) (A) (A) (A) (A) (A) (A) (A)
                 (A) (A) (A) (A) (A) (A) (A) (A) (A) (A) (A) (A)
                 (A) (A) (A) (A) (A) (A) (A) (A) (A) (A) (A) (A)
                 (A) (A) (A) (A) (A) (A) (A) (A) (A) (A) (A) (A)
                 (A) (A) (A)
 The electronic state is 1-A.
 Alpha  occ. eigenvalues --  -18.76809 -18.74110 -14.09600 -14.06065 -14.04261
 Alpha  occ. eigenvalues --  -14.03482 -14.02460 -14.01433 -13.98954 -13.98894
 Alpha  occ. eigenvalues --  -10.05525 -10.02601 -10.01708 -10.00579 -10.00182
 Alpha  occ. eigenvalues --   -9.97105  -9.96175  -9.94953  -9.91775  -0.96037
 Alpha  occ. eigenvalues --   -0.92004  -0.90164  -0.89315  -0.87604  -0.86437
 Alpha  occ. eigenvalues --   -0.80002  -0.79244  -0.78469  -0.76566  -0.71865
 Alpha  occ. eigenvalues --   -0.65478  -0.60818  -0.59639  -0.57581  -0.55643
 Alpha  occ. eigenvalues --   -0.53181  -0.52244  -0.51030  -0.49933  -0.48017
 Alpha  occ. eigenvalues --   -0.45464  -0.45140  -0.43995  -0.42444  -0.40608
 Alpha  occ. eigenvalues --   -0.40413  -0.40341  -0.39471  -0.37980  -0.37520
 Alpha  occ. eigenvalues --   -0.35602  -0.34978  -0.33399  -0.33188  -0.32449
 Alpha  occ. eigenvalues --   -0.30855  -0.30215  -0.23763  -0.23078  -0.21818
 Alpha  occ. eigenvalues --   -0.21224  -0.20637  -0.20560  -0.20334  -0.18978
 Alpha  occ. eigenvalues --   -0.18396  -0.17097  -0.13912
 Alpha virt. eigenvalues --   -0.06068  -0.01826  -0.00086   0.01062   0.04019
 Alpha virt. eigenvalues --    0.04828   0.07702   0.08676   0.08731   0.09180
 Alpha virt. eigenvalues --    0.10735   0.12999   0.13429   0.14901   0.15165
 Alpha virt. eigenvalues --    0.16888   0.18183   0.19130   0.19548   0.20857
 Alpha virt. eigenvalues --    0.22681   0.23680   0.25621   0.26472   0.28370
 Alpha virt. eigenvalues --    0.29727   0.31388   0.34453   0.34826   0.36923
 Alpha virt. eigenvalues --    0.37875   0.39462   0.41726   0.44468   0.46969
 Alpha virt. eigenvalues --    0.51347   0.53612   0.60171   0.60540   0.63347
 Alpha virt. eigenvalues --    0.64277   0.64719   0.67645   0.68852   0.68913
 Alpha virt. eigenvalues --    0.69294   0.69803   0.70071   0.71012   0.72444
 Alpha virt. eigenvalues --    0.72658   0.74553   0.74791   0.77488   0.77885
 Alpha virt. eigenvalues --    0.78356   0.80075   0.80561   0.82181   0.84290
 Alpha virt. eigenvalues --    0.85575   0.86098   0.88059   0.91052   0.93077
 Alpha virt. eigenvalues --    0.98539   0.99510   1.03144   1.04192   1.05143
 Alpha virt. eigenvalues --    1.06713   1.07712   1.08150   1.08364   1.09905
 Alpha virt. eigenvalues --    1.10472   1.13538   1.15652   1.16624   1.18262
 Alpha virt. eigenvalues --    1.19433   1.22185   1.22502   1.24016   1.26320
 Alpha virt. eigenvalues --    1.27108   1.30437   1.33510   1.33740   1.35430
 Alpha virt. eigenvalues --    1.36227   1.43918   1.46162   1.47979   1.48597
 Alpha virt. eigenvalues --    1.51396   1.51657   1.54016   1.55952   1.59721
 Alpha virt. eigenvalues --    1.60730   1.62861   1.63619   1.66184   1.67625
 Alpha virt. eigenvalues --    1.74371   1.76574   1.79802   1.90861   1.98696
 Alpha virt. eigenvalues --    1.99196   2.03231   2.12924   2.51655   2.57657
 Alpha virt. eigenvalues --    2.60895   2.72772   2.79138   2.86853   2.88470
 Alpha virt. eigenvalues --    3.12149   3.28247   3.44583
          Condensed to atoms (all electrons):
               1          2          3          4          5          6
     1  C    4.956193   0.465415  -0.139243  -0.130304   0.242270  -0.013203
     2  N    0.465415   6.922914   0.315814  -0.060300  -0.077778   0.002073
     3  C   -0.139243   0.315814   5.742310   0.111992  -0.083578   0.007825
     4  C   -0.130304  -0.060300   0.111992   5.132647   0.233718  -0.023113
     5  N    0.242270  -0.077778  -0.083578   0.233718   7.147655   0.308555
     6  H   -0.013203   0.002073   0.007825  -0.023113   0.308555   0.410350
     7  N    0.002187   0.002042  -0.041871   0.364582  -0.038298   0.002626
     8  C   -0.000000   0.000362  -0.005432  -0.107788   0.001294  -0.000041
     9  N   -0.000101   0.000899  -0.114833  -0.008515   0.000067   0.000009
    10  C    0.005418  -0.040954   0.161203  -0.074094   0.003224  -0.000011
    11  O   -0.000013  -0.000947  -0.079035   0.002481  -0.000003   0.000000
    12  N    0.000000   0.000000  -0.000016   0.000837  -0.000007  -0.000002
    13  H    0.375554  -0.033029   0.005102   0.001991  -0.045546   0.000685
    14  H    0.000001  -0.000006   0.003200   0.000031   0.000001  -0.000000
    15  H    0.000000  -0.000000   0.000054   0.000142  -0.000005   0.000002
    16  H   -0.000000  -0.000000   0.000001  -0.000078   0.000000   0.000000
    17  C   -0.000000   0.000000  -0.000000   0.000000  -0.000000   0.000000
    18  C    0.000000   0.000000   0.000000  -0.000000   0.000000  -0.000000
    19  N    0.000000   0.000000  -0.000000   0.000000  -0.000000   0.000000
    20  C    0.000000   0.000000   0.000000   0.000000  -0.000000   0.000000
    21  O    0.000000   0.000000   0.000000   0.000000  -0.000000  -0.000000
    22  N   -0.000000   0.000000  -0.000011  -0.000000  -0.000000   0.000000
    23  C   -0.000000   0.000000  -0.000007   0.000000  -0.000000   0.000000
    24  N   -0.000000  -0.000000  -0.000054   0.000000  -0.000000   0.000000
    25  H    0.000000  -0.000000   0.000000  -0.000000   0.000000  -0.000000
    26  H    0.000000  -0.000000   0.000000   0.000000   0.000000  -0.000000
    27  H   -0.000000   0.000000  -0.000000   0.000000  -0.000000   0.000000
    28  H    0.000000   0.000001   0.001908  -0.000037   0.000000  -0.000000
    29  H    0.000000  -0.000000   0.000001  -0.000000   0.000000  -0.000000
               7          8          9         10         11         12
     1  C    0.002187  -0.000000  -0.000101   0.005418  -0.000013   0.000000
     2  N    0.002042   0.000362   0.000899  -0.040954  -0.000947   0.000000
     3  C   -0.041871  -0.005432  -0.114833   0.161203  -0.079035  -0.000016
     4  C    0.364582  -0.107788  -0.008515  -0.074094   0.002481   0.000837
     5  N   -0.038298   0.001294   0.000067   0.003224  -0.000003  -0.000007
     6  H    0.002626  -0.000041   0.000009  -0.000011   0.000000  -0.000002
     7  N    6.988495   0.463347  -0.060328  -0.013939  -0.000002  -0.060736
     8  C    0.463347   4.422715   0.229101  -0.042962   0.000936   0.321742
     9  N   -0.060328   0.229101   7.493223   0.160798  -0.062342  -0.063639
    10  C   -0.013939  -0.042962   0.160798   4.785239   0.485628   0.000598
    11  O   -0.000002   0.000936  -0.062342   0.485628   8.065256  -0.000002
    12  N   -0.060736   0.321742  -0.063639   0.000598  -0.000002   7.019468
    13  H   -0.000013   0.000002   0.000000  -0.000050  -0.000000  -0.000000
    14  H    0.000986  -0.014371   0.217339  -0.016853  -0.000845  -0.001319
    15  H    0.004702  -0.028669   0.003597  -0.000025   0.000000   0.312542
    16  H    0.001374  -0.020613  -0.001645  -0.000060  -0.000001   0.240324
    17  C   -0.000000  -0.000000  -0.000026  -0.000002  -0.000004   0.000000
    18  C    0.000000   0.000000   0.000000   0.000000   0.000000   0.000000
    19  N   -0.000000  -0.000001  -0.000003   0.000000  -0.000000  -0.000005
    20  C   -0.000001  -0.000042  -0.000062   0.000029   0.000002  -0.000553
    21  O   -0.000000  -0.000226   0.000088   0.000001   0.000000  -0.016683
    22  N   -0.000002  -0.000132  -0.028255   0.000022  -0.000051   0.000257
    23  C   -0.000000   0.000005  -0.000577   0.000049  -0.000493   0.000003
    24  N   -0.000000  -0.000000   0.000518  -0.000478  -0.027112  -0.000000
    25  H    0.000000   0.000000   0.000000   0.000000   0.000000   0.000000
    26  H    0.000000   0.000000   0.000000   0.000000   0.000000   0.000000
    27  H   -0.000000  -0.000000  -0.000000  -0.000000  -0.000000  -0.000000
    28  H    0.000001   0.000027  -0.002932  -0.001488   0.122241  -0.000000
    29  H    0.000000   0.000000  -0.000008   0.000031   0.000461  -0.000000
              13         14         15         16         17         18
     1  C    0.375554   0.000001   0.000000  -0.000000  -0.000000   0.000000
     2  N   -0.033029  -0.000006  -0.000000  -0.000000   0.000000   0.000000
     3  C    0.005102   0.003200   0.000054   0.000001  -0.000000   0.000000
     4  C    0.001991   0.000031   0.000142  -0.000078   0.000000  -0.000000
     5  N   -0.045546   0.000001  -0.000005   0.000000  -0.000000   0.000000
     6  H    0.000685  -0.000000   0.000002   0.000000   0.000000  -0.000000
     7  N   -0.000013   0.000986   0.004702   0.001374  -0.000000   0.000000
     8  C    0.000002  -0.014371  -0.028669  -0.020613  -0.000000   0.000000
     9  N    0.000000   0.217339   0.003597  -0.001645  -0.000026   0.000000
    10  C   -0.000050  -0.016853  -0.000025  -0.000060  -0.000002   0.000000
    11  O   -0.000000  -0.000845   0.000000  -0.000001  -0.000004   0.000000
    12  N   -0.000000  -0.001319   0.312542   0.240324   0.000000   0.000000
    13  H    0.503618  -0.000000  -0.000000   0.000000   0.000000   0.000000
    14  H   -0.000000   0.350091   0.000007   0.003342   0.000719  -0.000007
    15  H   -0.000000   0.000007   0.425375  -0.014158   0.000000  -0.000000
    16  H    0.000000   0.003342  -0.014158   0.384707  -0.000003  -0.000011
    17  C    0.000000   0.000719   0.000000  -0.000003   5.344578   0.473073
    18  C    0.000000  -0.000007  -0.000000  -0.000011   0.473073   4.934027
    19  N    0.000000   0.000293   0.000000   0.000487  -0.051322   0.282835
    20  C   -0.000000  -0.002238   0.000022   0.000445  -0.013810  -0.048090
    21  O   -0.000000  -0.001494   0.000159   0.092030   0.000063   0.000926
    22  N    0.000000   0.111846  -0.000001  -0.002417  -0.050938  -0.010282
    23  C    0.000000  -0.000858  -0.000000   0.000017   0.268243  -0.081578
    24  N    0.000000  -0.002767  -0.000000   0.000000  -0.076607   0.003248
    25  H   -0.000000  -0.000009  -0.000000  -0.000016   0.003303  -0.026846
    26  H   -0.000000  -0.000006  -0.000000  -0.000000   0.375359  -0.038903
    27  H    0.000000   0.000000   0.000000   0.000000  -0.032628   0.371166
    28  H   -0.000000   0.004443   0.000000   0.000000   0.001973  -0.000046
    29  H   -0.000000   0.000038   0.000000   0.000000  -0.001319   0.000241
              19         20         21         22         23         24
     1  C    0.000000   0.000000   0.000000  -0.000000  -0.000000  -0.000000
     2  N    0.000000   0.000000   0.000000   0.000000   0.000000  -0.000000
     3  C   -0.000000   0.000000   0.000000  -0.000011  -0.000007  -0.000054
     4  C    0.000000   0.000000   0.000000  -0.000000   0.000000   0.000000
     5  N   -0.000000  -0.000000  -0.000000  -0.000000  -0.000000  -0.000000
     6  H    0.000000   0.000000  -0.000000   0.000000   0.000000   0.000000
     7  N   -0.000000  -0.000001  -0.000000  -0.000002  -0.000000  -0.000000
     8  C   -0.000001  -0.000042  -0.000226  -0.000132   0.000005  -0.000000
     9  N   -0.000003  -0.000062   0.000088  -0.028255  -0.000577   0.000518
    10  C    0.000000   0.000029   0.000001   0.000022   0.000049  -0.000478
    11  O   -0.000000   0.000002   0.000000  -0.000051  -0.000493  -0.027112
    12  N   -0.000005  -0.000553  -0.016683   0.000257   0.000003  -0.000000
    13  H    0.000000  -0.000000  -0.000000   0.000000   0.000000   0.000000
    14  H    0.000293  -0.002238  -0.001494   0.111846  -0.000858  -0.002767
    15  H    0.000000   0.000022   0.000159  -0.000001  -0.000000  -0.000000
    16  H    0.000487   0.000445   0.092030  -0.002417   0.000017   0.000000
    17  C   -0.051322  -0.013810   0.000063  -0.050938   0.268243  -0.076607
    18  C    0.282835  -0.048090   0.000926  -0.010282  -0.081578   0.003248
    19  N    7.216676   0.113606  -0.066635  -0.081469  -0.013009   0.000009
    20  C    0.113606   4.529891   0.486188   0.225031  -0.041421   0.001619
    21  O   -0.066635   0.486188   8.034195  -0.059721   0.000673  -0.000002
    22  N   -0.081469   0.225031  -0.059721   7.238616   0.354300  -0.062783
    23  C   -0.013009  -0.041421   0.000673   0.354300   4.662530   0.331583
    24  N    0.000009   0.001619  -0.000002  -0.062783   0.331583   7.053442
    25  H    0.301346  -0.011494   0.005740   0.003132   0.000062   0.000003
    26  H    0.002261   0.000457   0.000001   0.002123  -0.028831  -0.003136
    27  H   -0.037404   0.001190  -0.000023  -0.000102   0.003574  -0.000030
    28  H    0.000001  -0.000034  -0.000002  -0.001557  -0.018331   0.193912
    29  H    0.000007  -0.000082   0.000000   0.002728  -0.040209   0.322691
              25         26         27         28         29
     1  C    0.000000   0.000000  -0.000000   0.000000   0.000000
     2  N   -0.000000  -0.000000   0.000000   0.000001  -0.000000
     3  C    0.000000   0.000000  -0.000000   0.001908   0.000001
     4  C   -0.000000   0.000000   0.000000  -0.000037  -0.000000
     5  N    0.000000   0.000000  -0.000000   0.000000   0.000000
     6  H   -0.000000  -0.000000   0.000000  -0.000000  -0.000000
     7  N    0.000000   0.000000  -0.000000   0.000001   0.000000
     8  C    0.000000   0.000000  -0.000000   0.000027   0.000000
     9  N    0.000000   0.000000  -0.000000  -0.002932  -0.000008
    10  C    0.000000   0.000000  -0.000000  -0.001488   0.000031
    11  O    0.000000   0.000000  -0.000000   0.122241   0.000461
    12  N    0.000000   0.000000  -0.000000  -0.000000  -0.000000
    13  H   -0.000000  -0.000000   0.000000  -0.000000  -0.000000
    14  H   -0.000009  -0.000006   0.000000   0.004443   0.000038
    15  H   -0.000000  -0.000000   0.000000   0.000000   0.000000
    16  H   -0.000016  -0.000000   0.000000   0.000000   0.000000
    17  C    0.003303   0.375359  -0.032628   0.001973  -0.001319
    18  C   -0.026846  -0.038903   0.371166  -0.000046   0.000241
    19  N    0.301346   0.002261  -0.037404   0.000001   0.000007
    20  C   -0.011494   0.000457   0.001190  -0.000034  -0.000082
    21  O    0.005740   0.000001  -0.000023  -0.000002   0.000000
    22  N    0.003132   0.002123  -0.000102  -0.001557   0.002728
    23  C    0.000062  -0.028831   0.003574  -0.018331  -0.040209
    24  N    0.000003  -0.003136  -0.000030   0.193912   0.322691
    25  H    0.406878  -0.000043  -0.003764  -0.000000  -0.000000
    26  H   -0.000043   0.520286  -0.003484  -0.000030   0.002389
    27  H   -0.003764  -0.003484   0.484855   0.000000  -0.000000
    28  H   -0.000000  -0.000030   0.000000   0.368590  -0.010640
    29  H   -0.000000   0.002389  -0.000000  -0.010640   0.429527
 Mulliken charges:
               1
     1  C    0.235827
     2  N   -0.496507
     3  C    0.114670
     4  C    0.555808
     5  N   -0.691568
     6  H    0.304245
     7  N   -0.615151
     8  C    0.780746
     9  N   -0.762374
    10  C    0.588676
    11  O   -0.506154
    12  N   -0.752810
    13  H    0.191686
    14  H    0.348435
    15  H    0.296258
    16  H    0.316274
    17  C   -0.240650
    18  C    0.140246
    19  N   -0.667671
    20  C    0.759346
    21  O   -0.475278
    22  N   -0.640332
    23  C    0.604276
    24  N   -0.734057
    25  H    0.321707
    26  H    0.171558
    27  H    0.216650
    28  H    0.341997
    29  H    0.294146
 Sum of Mulliken charges =  -0.00000
 Mulliken charges with hydrogens summed into heavy atoms:
               1
     1  C    0.427512
     2  N   -0.496507
     3  C    0.114670
     4  C    0.555808
     5  N   -0.387323
     7  N   -0.615151
     8  C    0.780746
     9  N   -0.413938
    10  C    0.588676
    11  O   -0.506154
    12  N   -0.140278
    17  C   -0.069092
    18  C    0.356896
    19  N   -0.345964
    20  C    0.759346
    21  O   -0.475278
    22  N   -0.640332
    23  C    0.604276
    24  N   -0.097913
 Electronic spatial extent (au):  <R**2>=           6108.5322
 Charge=             -0.0000 electrons
 Dipole moment (field-independent basis, Debye):
    X=             -6.5269    Y=              1.3997    Z=              0.0000  Tot=              6.6753
 Quadrupole moment (field-independent basis, Debye-Ang):
   XX=            -57.4259   YY=           -105.1555   ZZ=           -111.5626
   XY=             16.2133   XZ=              0.0002   YZ=              0.0000
 Traceless Quadrupole moment (field-independent basis, Debye-Ang):
   XX=             33.9554   YY=            -13.7742   ZZ=            -20.1812
   XY=             16.2133   XZ=              0.0002   YZ=              0.0000
 Octapole moment (field-independent basis, Debye-Ang**2):
  XXX=            -80.8961  YYY=              8.5669  ZZZ=             -0.0005  XYY=            -55.0918
  XXY=             37.8472  XXZ=              0.0009  XZZ=             -1.8942  YZZ=              3.5168
  YYZ=              0.0003  XYZ=             -0.0012
 Hexadecapole moment (field-independent basis, Debye-Ang**3):
 XXXX=          -4236.2094 YYYY=          -1326.8825 ZZZZ=            -96.9084 XXXY=             83.5435
 XXXZ=              0.0096 YYYX=            165.9046 YYYZ=              0.0002 ZZZX=              0.0009
 ZZZY=              0.0001 XXYY=          -1240.4342 XXZZ=          -1160.6067 YYZZ=           -277.7139
 XXYZ=              0.0025 YYXZ=              0.0007 ZZXY=            -15.5616
 N-N= 1.376515291191D+03 E-N=-4.937367457473D+03  KE= 9.294987482179D+02
 No NMR shielding tensors so no spin-rotation constants.
 Leave Link  601 at Thu Oct 26 07:58:26 2023, MaxMem=   805306368 cpu:               0.1 elap:               0.1
 (Enter /opt/gaussian/g16/l701.exe)
 ... and contract with generalized density number  0.
 Compute integral first derivatives.
 R6Disp: Adding Grimme-D3 dispersion energy 1st derivatives to the gradient.
 Leave Link  701 at Thu Oct 26 07:58:26 2023, MaxMem=   805306368 cpu:               0.1 elap:               0.1
 (Enter /opt/gaussian/g16/l702.exe)
 L702 exits ... SP integral derivatives will be done elsewhere.
 Leave Link  702 at Thu Oct 26 07:58:26 2023, MaxMem=   805306368 cpu:               0.0 elap:               0.0
 (Enter /opt/gaussian/g16/l703.exe)
 Integral derivatives from FoFJK, PRISM(SPDF).
 Compute integral first derivatives, UseDBF=F ICtDFT=           0.
 Calling FoFJK, ICntrl=      2527 FMM=F ISym2X=0 I1Cent= 0 IOpClX= 0 NMat=1 NMatS=1 NMatT=0.
 FoFJK:  IHMeth= 1 ICntrl=    2527 DoSepK=F KAlg= 0 I1Cent=           0 FoldK=F
 IRaf=         0 NMat=       1 IRICut=       1 DoRegI=T DoRafI=F ISym2E= 0 IDoP0=0 IntGTp=1.
 FoFCou: FMM=F IPFlag=           0 FMFlag=      100000 FMFlg1=         800
         NFxFlg=           0 DoJE=F BraDBF=F KetDBF=F FulRan=T
         wScrn=  0.000000 ICntrl=      2527 IOpCl=  0 I1Cent=           0 NGrid=           0
         NMat0=    1 NMatS0=      1 NMatT0=    0 NMatD0=    1 NMtDS0=    0 NMtDT0=    0
 Symmetry not used in FoFCou.
 Leave Link  703 at Thu Oct 26 07:58:44 2023, MaxMem=   805306368 cpu:              17.7 elap:              17.7
 (Enter /opt/gaussian/g16/l716.exe)
 Dipole        =-2.56787614D+00 5.50665764D-01 1.84875932D-05
 ***** Axes restored to original set *****
 -------------------------------------------------------------------
 Center     Atomic                   Forces (Hartrees/Bohr)
 Number     Number              X              Y              Z
 -------------------------------------------------------------------
      1        6           0.000000566   -0.000000837   -0.000000307
      2        7          -0.000000869    0.000000881    0.000000481
      3        6           0.000002805   -0.000000800    0.000000299
      4        6          -0.000002044   -0.000000584   -0.000000129
      5        7           0.000000030   -0.000000254   -0.000000342
      6        1           0.000000459    0.000000961    0.000000298
      7        7          -0.000001118   -0.000000242    0.000000104
      8        6           0.000002525    0.000001115   -0.000000779
      9        7          -0.000002290   -0.000002862    0.000001280
     10        6          -0.000001971    0.000002637   -0.000001057
     11        8          -0.000000232   -0.000001425    0.000000336
     12        7          -0.000000122    0.000000168   -0.000000273
     13        1          -0.000000205    0.000000189   -0.000000034
     14        1           0.000001573    0.000000965    0.000000106
     15        1          -0.000000079    0.000000020    0.000000309
     16        1          -0.000001056    0.000000044    0.000000026
     17        6           0.000000699    0.000000440   -0.000000576
     18        6           0.000001515   -0.000000346   -0.000001222
     19        7           0.000002143   -0.000000905    0.000000841
     20        6          -0.000002049   -0.000000816   -0.000000329
     21        8           0.000000753   -0.000000821    0.000000710
     22        7          -0.000000245   -0.000000514   -0.000000389
     23        6           0.000000824   -0.000000217   -0.000000702
     24        7           0.000001506    0.000001844   -0.000000211
     25        1          -0.000001257    0.000001686   -0.000000195
     26        1          -0.000000395    0.000000198    0.000001103
     27        1          -0.000000249    0.000000015    0.000000311
     28        1          -0.000000901   -0.000000234    0.000000055
     29        1          -0.000000312   -0.000000307    0.000000287
 -------------------------------------------------------------------
 Cartesian Forces:  Max     0.000002862 RMS     0.000001036
 Leave Link  716 at Thu Oct 26 07:58:44 2023, MaxMem=   805306368 cpu:               0.0 elap:               0.0
 (Enter /opt/gaussian/g16/l103.exe)

 GradGradGradGradGradGradGradGradGradGradGradGradGradGradGradGradGradGrad
 Berny optimization.
 FormGI is forming the generalized inverse of G from B-inverse, IUseBI=4.
 Internal  Forces:  Max     0.000003431 RMS     0.000000650
 Search for a local minimum.
 Step number   1 out of a maximum of  100
 All quantities printed in internal units (Hartrees-Bohrs-Radians)
 RMS Force = .65045D-06 SwitMx=.10000D-02 MixMth= 2
 Mixed Optimization -- En-DIIS/RFO-DIIS
 Second derivative matrix not updated -- first step.
 ITU=  0
     Eigenvalues ---    0.00230   0.00664   0.01152   0.01236   0.01433
     Eigenvalues ---    0.01456   0.01553   0.01566   0.01580   0.01653
     Eigenvalues ---    0.01654   0.01721   0.01778   0.01784   0.01813
     Eigenvalues ---    0.01877   0.01920   0.01953   0.01983   0.02035
     Eigenvalues ---    0.02058   0.02118   0.02205   0.02205   0.02266
     Eigenvalues ---    0.02324   0.04935   0.06300   0.07542   0.09879
     Eigenvalues ---    0.16000   0.16000   0.16000   0.16000   0.16000
     Eigenvalues ---    0.16000   0.16000   0.16000   0.16000   0.20473
     Eigenvalues ---    0.21919   0.22500   0.22708   0.23220   0.23477
     Eigenvalues ---    0.23656   0.24747   0.25000   0.25000   0.25000
     Eigenvalues ---    0.25000   0.34861   0.35046   0.35136   0.35534
     Eigenvalues ---    0.35867   0.36337   0.37518   0.38385   0.38563
     Eigenvalues ---    0.39403   0.40658   0.40843   0.42303   0.43673
     Eigenvalues ---    0.43887   0.44113   0.44228   0.44368   0.44842
     Eigenvalues ---    0.45101   0.48204   0.49599   0.50566   0.50691
     Eigenvalues ---    0.52018   0.52713   0.54837   0.55401   0.72051
     Eigenvalues ---    0.77131
 RFO step:  Lambda= 0.00000000D+00 EMin= 2.30000000D-03
 Linear search not attempted -- first point.
 Iteration  1 RMS(Cart)=  0.00004427 RMS(Int)=  0.00000000
 Iteration  2 RMS(Cart)=  0.00000000 RMS(Int)=  0.00000000
 ITry= 1 IFail=0 DXMaxC= 1.70D-04 DCOld= 1.00D+10 DXMaxT= 3.00D-01 DXLimC= 3.00D+00 Rises=F
 Variable       Old X    -DE/DX   Delta X   Delta X   Delta X     New X
                                 (Linear)    (Quad)   (Total)
    R1        2.52796   0.00000   0.00000   0.00000   0.00000   2.52796
    R2        2.68343   0.00000   0.00000   0.00000   0.00000   2.68343
    R3        2.04817  -0.00000   0.00000  -0.00000  -0.00000   2.04817
    R4        2.68266  -0.00000   0.00000  -0.00000  -0.00000   2.68266
    R5        2.68145  -0.00000   0.00000  -0.00000  -0.00000   2.68145
    R6        2.71124   0.00000   0.00000   0.00000   0.00000   2.71124
    R7        2.63819   0.00000   0.00000   0.00000   0.00000   2.63819
    R8        2.57710   0.00000   0.00000   0.00000   0.00000   2.57710
    R9        1.93019   0.00000   0.00000   0.00000   0.00000   1.93019
   R10        2.56871  -0.00000   0.00000  -0.00000  -0.00000   2.56871
   R11        2.64076   0.00000   0.00000   0.00000   0.00000   2.64076
   R12        2.57223   0.00000   0.00000   0.00000   0.00000   2.57223
   R13        2.70427  -0.00000   0.00000  -0.00000  -0.00000   2.70426
   R14        2.01067  -0.00000   0.00000  -0.00001  -0.00001   2.01066
   R15        2.41601   0.00000   0.00000   0.00000   0.00000   2.41601
   R16        3.08368  -0.00000   0.00000  -0.00000  -0.00000   3.08368
   R17        1.92883  -0.00000   0.00000  -0.00000  -0.00000   1.92883
   R18        1.97124   0.00000   0.00000   0.00000   0.00000   1.97125
   R19        3.32923  -0.00000   0.00000  -0.00003  -0.00003   3.32920
   R20        2.58658  -0.00000   0.00000  -0.00000  -0.00000   2.58658
   R21        2.75250  -0.00000   0.00000  -0.00000  -0.00000   2.75249
   R22        2.05454  -0.00000   0.00000  -0.00000  -0.00000   2.05454
   R23        2.60897  -0.00000   0.00000  -0.00000  -0.00000   2.60897
   R24        2.05901   0.00000   0.00000   0.00000   0.00000   2.05901
   R25        2.72971  -0.00000   0.00000  -0.00001  -0.00001   2.72971
   R26        1.93547   0.00000   0.00000   0.00000   0.00000   1.93548
   R27        2.39501  -0.00000   0.00000  -0.00000  -0.00000   2.39501
   R28        2.60653  -0.00000   0.00000  -0.00000  -0.00000   2.60653
   R29        2.58807  -0.00000   0.00000  -0.00000  -0.00000   2.58806
   R30        2.54440  -0.00000   0.00000  -0.00000  -0.00000   2.54440
   R31        2.02936  -0.00000   0.00000  -0.00000  -0.00000   2.02935
   R32        1.93290   0.00000   0.00000   0.00000   0.00000   1.93290
    A1        1.96098  -0.00000   0.00000  -0.00000  -0.00000   1.96098
    A2        2.19768   0.00000   0.00000   0.00000   0.00000   2.19768
    A3        2.12452   0.00000   0.00000   0.00000   0.00000   2.12452
    A4        1.82449   0.00000   0.00000   0.00000   0.00000   1.82449
    A5        1.93718   0.00000   0.00000   0.00000   0.00000   1.93718
    A6        2.27532   0.00000   0.00000   0.00000   0.00000   2.27532
    A7        2.07069  -0.00000   0.00000  -0.00000  -0.00000   2.07068
    A8        1.83449  -0.00000   0.00000  -0.00000  -0.00000   1.83449
    A9        2.24685   0.00000   0.00000   0.00000   0.00000   2.24686
   A10        2.20184  -0.00000   0.00000  -0.00000  -0.00000   2.20184
   A11        1.86764  -0.00000   0.00000  -0.00000  -0.00000   1.86764
   A12        2.23755   0.00000   0.00000   0.00000   0.00000   2.23755
   A13        2.17800  -0.00000   0.00000  -0.00000  -0.00000   2.17800
   A14        1.96237  -0.00000   0.00000  -0.00000  -0.00000   1.96237
   A15        2.15127  -0.00000   0.00000  -0.00000  -0.00000   2.15127
   A16        2.08348   0.00000   0.00000   0.00000   0.00000   2.08348
   A17        2.04844  -0.00000   0.00000  -0.00000  -0.00000   2.04844
   A18        2.18383   0.00000   0.00000   0.00000   0.00000   2.18383
   A19        2.08039  -0.00000   0.00000  -0.00001  -0.00001   2.08038
   A20        2.01897   0.00000   0.00000   0.00000   0.00000   2.01897
   A21        1.95137  -0.00000   0.00000  -0.00000  -0.00000   1.95136
   A22        2.22942   0.00000   0.00000   0.00000   0.00000   2.22942
   A23        2.10240   0.00000   0.00000   0.00000   0.00000   2.10240
   A24        2.16160  -0.00000   0.00000  -0.00000  -0.00000   2.16159
   A25        2.02809  -0.00000   0.00000  -0.00000  -0.00000   2.02809
   A26        2.15301   0.00000   0.00000   0.00000   0.00000   2.15301
   A27        2.10208  -0.00000   0.00000  -0.00000  -0.00000   2.10208
   A28        2.05728  -0.00000   0.00000   0.00000   0.00000   2.05728
   A29        2.11363  -0.00000   0.00000  -0.00000  -0.00000   2.11363
   A30        2.11227   0.00000   0.00000   0.00000   0.00000   2.11227
   A31        2.10238   0.00000   0.00000   0.00000   0.00000   2.10238
   A32        2.14084  -0.00000   0.00000  -0.00000  -0.00000   2.14084
   A33        2.03997  -0.00000   0.00000  -0.00000  -0.00000   2.03997
   A34        2.13337  -0.00000   0.00000  -0.00000  -0.00000   2.13337
   A35        2.12720   0.00000   0.00000   0.00000   0.00000   2.12721
   A36        2.02261   0.00000   0.00000   0.00000   0.00000   2.02261
   A37        2.06109   0.00000   0.00000   0.00000   0.00000   2.06109
   A38        2.03771   0.00000   0.00000   0.00000   0.00000   2.03771
   A39        2.18439  -0.00000   0.00000  -0.00001  -0.00001   2.18438
   A40        2.03276  -0.00000   0.00000  -0.00000  -0.00000   2.03275
   A41        2.12697   0.00000   0.00000  -0.00000  -0.00000   2.12697
   A42        2.12346   0.00000   0.00000   0.00000   0.00000   2.12346
   A43        2.11217  -0.00000   0.00000  -0.00000  -0.00000   2.11217
   A44        2.11971   0.00000   0.00000   0.00000   0.00000   2.11971
   A45        2.05130  -0.00000   0.00000  -0.00000  -0.00000   2.05130
   A46        2.11384   0.00000   0.00000   0.00000   0.00000   2.11384
   A47        2.09013  -0.00000   0.00000  -0.00000  -0.00000   2.09012
   A48        2.07922   0.00000   0.00000  -0.00000  -0.00000   2.07922
   A49        3.11366   0.00000   0.00000   0.00001   0.00001   3.11367
   A50        3.16081  -0.00000   0.00000  -0.00001  -0.00001   3.16080
   A51        3.14157   0.00000   0.00000   0.00007   0.00007   3.14164
   A52        3.14159  -0.00000   0.00000  -0.00006  -0.00006   3.14153
    D1       -0.00000   0.00000   0.00000   0.00001   0.00001   0.00001
    D2       -3.14159   0.00000   0.00000   0.00000   0.00000  -3.14159
    D3       -0.00000  -0.00000   0.00000  -0.00001  -0.00001  -0.00001
    D4       -3.14157  -0.00000   0.00000  -0.00001  -0.00001  -3.14159
    D5        3.14159   0.00000   0.00000   0.00000   0.00000   3.14159
    D6        0.00002  -0.00000   0.00000  -0.00000  -0.00000   0.00001
    D7        0.00000  -0.00000   0.00000  -0.00001  -0.00001  -0.00001
    D8       -3.14158  -0.00000   0.00000  -0.00001  -0.00001   3.14159
    D9       -0.00000   0.00000   0.00000   0.00000   0.00000   0.00000
   D10        3.14159   0.00000   0.00000   0.00000   0.00000  -3.14159
   D11        3.14158   0.00000   0.00000   0.00001   0.00001   3.14159
   D12       -0.00001   0.00000   0.00000   0.00001   0.00001   0.00000
   D13       -3.14158  -0.00000   0.00000  -0.00001  -0.00001   3.14159
   D14        0.00000   0.00000   0.00000  -0.00000  -0.00000   0.00000
   D15        0.00002  -0.00000   0.00000  -0.00001  -0.00001   0.00000
   D16       -3.14158   0.00000   0.00000  -0.00001  -0.00001  -3.14159
   D17        0.00000   0.00000   0.00000   0.00000   0.00000   0.00000
   D18        3.14158   0.00000   0.00000   0.00001   0.00001   3.14158
   D19       -3.14159  -0.00000   0.00000   0.00000   0.00000  -3.14159
   D20       -0.00002   0.00000   0.00000   0.00001   0.00001  -0.00001
   D21        0.00000  -0.00000   0.00000  -0.00000  -0.00000   0.00000
[...]
                 (A) (A) (A) (A) (A) (A) (A) (A) (A) (A) (A) (A)
                 (A) (A) (A) (A) (A) (A) (A) (A) (A) (A) (A) (A)
                 (A) (A) (A) (A) (A) (A) (A) (A) (A) (A) (A) (A)
                 (A) (A) (A) (A) (A) (A) (A) (A) (A) (A) (A) (A)
                 (A) (A) (A) (A) (A) (A) (A) (A) (A) (A) (A) (A)
                 (A) (A) (A)
 The electronic state is 1-A.
 Alpha  occ. eigenvalues --  -18.76809 -18.74110 -14.09600 -14.06065 -14.04261
 Alpha  occ. eigenvalues --  -14.03482 -14.02460 -14.01433 -13.98954 -13.98894
 Alpha  occ. eigenvalues --  -10.05525 -10.02601 -10.01708 -10.00579 -10.00182
 Alpha  occ. eigenvalues --   -9.97105  -9.96175  -9.94953  -9.91775  -0.96037
 Alpha  occ. eigenvalues --   -0.92004  -0.90164  -0.89315  -0.87604  -0.86437
 Alpha  occ. eigenvalues --   -0.80002  -0.79244  -0.78469  -0.76566  -0.71865
 Alpha  occ. eigenvalues --   -0.65478  -0.60818  -0.59639  -0.57581  -0.55643
 Alpha  occ. eigenvalues --   -0.53181  -0.52244  -0.51030  -0.49933  -0.48017
 Alpha  occ. eigenvalues --   -0.45464  -0.45140  -0.43995  -0.42444  -0.40608
 Alpha  occ. eigenvalues --   -0.40413  -0.40341  -0.39471  -0.37980  -0.37520
 Alpha  occ. eigenvalues --   -0.35602  -0.34978  -0.33399  -0.33188  -0.32449
 Alpha  occ. eigenvalues --   -0.30855  -0.30215  -0.23763  -0.23078  -0.21818
 Alpha  occ. eigenvalues --   -0.21224  -0.20637  -0.20560  -0.20334  -0.18978
 Alpha  occ. eigenvalues --   -0.18396  -0.17097  -0.13912
 Alpha virt. eigenvalues --   -0.06068  -0.01826  -0.00086   0.01062   0.04019
 Alpha virt. eigenvalues --    0.04828   0.07702   0.08676   0.08732   0.09180
 Alpha virt. eigenvalues --    0.10735   0.12999   0.13429   0.14901   0.15165
 Alpha virt. eigenvalues --    0.16888   0.18183   0.19130   0.19548   0.20857
 Alpha virt. eigenvalues --    0.22681   0.23680   0.25621   0.26472   0.28370
 Alpha virt. eigenvalues --    0.29728   0.31388   0.34453   0.34826   0.36923
 Alpha virt. eigenvalues --    0.37875   0.39462   0.41726   0.44468   0.46969
 Alpha virt. eigenvalues --    0.51347   0.53612   0.60171   0.60539   0.63347
 Alpha virt. eigenvalues --    0.64277   0.64719   0.67645   0.68852   0.68913
 Alpha virt. eigenvalues --    0.69294   0.69803   0.70071   0.71013   0.72444
 Alpha virt. eigenvalues --    0.72658   0.74553   0.74791   0.77488   0.77885
 Alpha virt. eigenvalues --    0.78357   0.80075   0.80562   0.82181   0.84290
 Alpha virt. eigenvalues --    0.85575   0.86098   0.88059   0.91052   0.93077
 Alpha virt. eigenvalues --    0.98538   0.99510   1.03144   1.04192   1.05143
 Alpha virt. eigenvalues --    1.06713   1.07712   1.08150   1.08364   1.09904
 Alpha virt. eigenvalues --    1.10472   1.13538   1.15652   1.16624   1.18262
 Alpha virt. eigenvalues --    1.19433   1.22185   1.22502   1.24016   1.26320
 Alpha virt. eigenvalues --    1.27108   1.30437   1.33510   1.33740   1.35430
 Alpha virt. eigenvalues --    1.36227   1.43918   1.46162   1.47979   1.48597
 Alpha virt. eigenvalues --    1.51396   1.51657   1.54016   1.55953   1.59721
 Alpha virt. eigenvalues --    1.60730   1.62861   1.63619   1.66184   1.67625
 Alpha virt. eigenvalues --    1.74371   1.76574   1.79802   1.90862   1.98696
 Alpha virt. eigenvalues --    1.99196   2.03231   2.12924   2.51656   2.57657
 Alpha virt. eigenvalues --    2.60895   2.72772   2.79138   2.86853   2.88471
 Alpha virt. eigenvalues --    3.12149   3.28247   3.44582
          Condensed to atoms (all electrons):
               1          2          3          4          5          6
     1  C    4.956193   0.465415  -0.139243  -0.130304   0.242270  -0.013203
     2  N    0.465415   6.922914   0.315816  -0.060300  -0.077778   0.002073
     3  C   -0.139243   0.315816   5.742304   0.111988  -0.083579   0.007825
     4  C   -0.130304  -0.060300   0.111988   5.132654   0.233718  -0.023113
     5  N    0.242270  -0.077778  -0.083579   0.233718   7.147653   0.308554
     6  H   -0.013203   0.002073   0.007825  -0.023113   0.308554   0.410351
     7  N    0.002186   0.002042  -0.041871   0.364582  -0.038299   0.002626
     8  C   -0.000000   0.000362  -0.005432  -0.107789   0.001294  -0.000041
     9  N   -0.000101   0.000899  -0.114832  -0.008515   0.000067   0.000009
    10  C    0.005418  -0.040954   0.161209  -0.074095   0.003224  -0.000011
    11  O   -0.000013  -0.000948  -0.079035   0.002481  -0.000003   0.000000
    12  N    0.000000   0.000000  -0.000016   0.000837  -0.000007  -0.000002
    13  H    0.375554  -0.033029   0.005102   0.001991  -0.045546   0.000685
    14  H    0.000001  -0.000006   0.003199   0.000031   0.000001  -0.000000
    15  H    0.000000  -0.000000   0.000054   0.000142  -0.000005   0.000002
    16  H   -0.000000  -0.000000   0.000001  -0.000078   0.000000   0.000000
    17  C   -0.000000   0.000000  -0.000000   0.000000  -0.000000   0.000000
    18  C    0.000000   0.000000   0.000000  -0.000000   0.000000  -0.000000
    19  N    0.000000   0.000000  -0.000000   0.000000  -0.000000   0.000000
    20  C    0.000000   0.000000   0.000000   0.000000  -0.000000   0.000000
    21  O    0.000000   0.000000   0.000000   0.000000  -0.000000  -0.000000
    22  N   -0.000000   0.000000  -0.000011  -0.000000  -0.000000   0.000000
    23  C   -0.000000   0.000000  -0.000007   0.000000  -0.000000   0.000000
    24  N   -0.000000  -0.000000  -0.000054   0.000000  -0.000000   0.000000
    25  H    0.000000  -0.000000   0.000000  -0.000000   0.000000  -0.000000
    26  H    0.000000  -0.000000   0.000000   0.000000   0.000000  -0.000000
    27  H   -0.000000   0.000000  -0.000000   0.000000  -0.000000   0.000000
    28  H    0.000000   0.000001   0.001908  -0.000037   0.000000  -0.000000
    29  H    0.000000  -0.000000   0.000001  -0.000000   0.000000  -0.000000
               7          8          9         10         11         12
     1  C    0.002186  -0.000000  -0.000101   0.005418  -0.000013   0.000000
     2  N    0.002042   0.000362   0.000899  -0.040954  -0.000948   0.000000
     3  C   -0.041871  -0.005432  -0.114832   0.161209  -0.079035  -0.000016
     4  C    0.364582  -0.107789  -0.008515  -0.074095   0.002481   0.000837
     5  N   -0.038299   0.001294   0.000067   0.003224  -0.000003  -0.000007
     6  H    0.002626  -0.000041   0.000009  -0.000011   0.000000  -0.000002
     7  N    6.988495   0.463348  -0.060329  -0.013939  -0.000002  -0.060736
     8  C    0.463348   4.422716   0.229101  -0.042962   0.000936   0.321742
     9  N   -0.060329   0.229101   7.493221   0.160798  -0.062341  -0.063639
    10  C   -0.013939  -0.042962   0.160798   4.785234   0.485625   0.000598
    11  O   -0.000002   0.000936  -0.062341   0.485625   8.065257  -0.000002
    12  N   -0.060736   0.321742  -0.063639   0.000598  -0.000002   7.019469
    13  H   -0.000013   0.000002   0.000000  -0.000050  -0.000000  -0.000000
    14  H    0.000986  -0.014371   0.217340  -0.016853  -0.000845  -0.001319
    15  H    0.004702  -0.028670   0.003597  -0.000025   0.000000   0.312542
    16  H    0.001374  -0.020612  -0.001645  -0.000060  -0.000001   0.240324
    17  C   -0.000000  -0.000000  -0.000026  -0.000002  -0.000004   0.000000
    18  C    0.000000   0.000000   0.000000   0.000000   0.000000   0.000000
    19  N   -0.000000  -0.000001  -0.000003   0.000000  -0.000000  -0.000005
    20  C   -0.000001  -0.000042  -0.000062   0.000029   0.000002  -0.000553
    21  O   -0.000000  -0.000226   0.000088   0.000001   0.000000  -0.016682
    22  N   -0.000002  -0.000132  -0.028256   0.000022  -0.000051   0.000257
    23  C   -0.000000   0.000005  -0.000577   0.000049  -0.000493   0.000003
    24  N   -0.000000  -0.000000   0.000518  -0.000477  -0.027113  -0.000000
    25  H    0.000000   0.000000   0.000000   0.000000   0.000000   0.000000
    26  H    0.000000   0.000000   0.000000   0.000000   0.000000   0.000000
    27  H   -0.000000  -0.000000  -0.000000  -0.000000  -0.000000  -0.000000
    28  H    0.000001   0.000027  -0.002932  -0.001488   0.122243  -0.000000
    29  H    0.000000   0.000000  -0.000008   0.000031   0.000461  -0.000000
              13         14         15         16         17         18
     1  C    0.375554   0.000001   0.000000  -0.000000  -0.000000   0.000000
     2  N   -0.033029  -0.000006  -0.000000  -0.000000   0.000000   0.000000
     3  C    0.005102   0.003199   0.000054   0.000001  -0.000000   0.000000
     4  C    0.001991   0.000031   0.000142  -0.000078   0.000000  -0.000000
     5  N   -0.045546   0.000001  -0.000005   0.000000  -0.000000   0.000000
     6  H    0.000685  -0.000000   0.000002   0.000000   0.000000  -0.000000
     7  N   -0.000013   0.000986   0.004702   0.001374  -0.000000   0.000000
     8  C    0.000002  -0.014371  -0.028670  -0.020612  -0.000000   0.000000
     9  N    0.000000   0.217340   0.003597  -0.001645  -0.000026   0.000000
    10  C   -0.000050  -0.016853  -0.000025  -0.000060  -0.000002   0.000000
    11  O   -0.000000  -0.000845   0.000000  -0.000001  -0.000004   0.000000
    12  N   -0.000000  -0.001319   0.312542   0.240324   0.000000   0.000000
    13  H    0.503618  -0.000000  -0.000000   0.000000   0.000000   0.000000
    14  H   -0.000000   0.350089   0.000007   0.003342   0.000719  -0.000007
    15  H   -0.000000   0.000007   0.425375  -0.014158   0.000000  -0.000000
    16  H    0.000000   0.003342  -0.014158   0.384707  -0.000003  -0.000011
    17  C    0.000000   0.000719   0.000000  -0.000003   5.344580   0.473073
    18  C    0.000000  -0.000007  -0.000000  -0.000011   0.473073   4.934030
    19  N    0.000000   0.000293   0.000000   0.000487  -0.051322   0.282833
    20  C   -0.000000  -0.002238   0.000022   0.000445  -0.013810  -0.048092
    21  O   -0.000000  -0.001494   0.000159   0.092031   0.000063   0.000926
    22  N    0.000000   0.111846  -0.000001  -0.002417  -0.050939  -0.010282
    23  C    0.000000  -0.000858  -0.000000   0.000017   0.268242  -0.081578
    24  N    0.000000  -0.002767  -0.000000   0.000000  -0.076608   0.003248
    25  H   -0.000000  -0.000009  -0.000000  -0.000016   0.003303  -0.026845
    26  H   -0.000000  -0.000006  -0.000000  -0.000000   0.375359  -0.038904
    27  H    0.000000   0.000000   0.000000   0.000000  -0.032628   0.371166
    28  H   -0.000000   0.004443   0.000000   0.000000   0.001973  -0.000046
    29  H   -0.000000   0.000038   0.000000   0.000000  -0.001320   0.000241
              19         20         21         22         23         24
     1  C    0.000000   0.000000   0.000000  -0.000000  -0.000000  -0.000000
     2  N    0.000000   0.000000   0.000000   0.000000   0.000000  -0.000000
     3  C   -0.000000   0.000000   0.000000  -0.000011  -0.000007  -0.000054
     4  C    0.000000   0.000000   0.000000  -0.000000   0.000000   0.000000
     5  N   -0.000000  -0.000000  -0.000000  -0.000000  -0.000000  -0.000000
     6  H    0.000000   0.000000  -0.000000   0.000000   0.000000   0.000000
     7  N   -0.000000  -0.000001  -0.000000  -0.000002  -0.000000  -0.000000
     8  C   -0.000001  -0.000042  -0.000226  -0.000132   0.000005  -0.000000
     9  N   -0.000003  -0.000062   0.000088  -0.028256  -0.000577   0.000518
    10  C    0.000000   0.000029   0.000001   0.000022   0.000049  -0.000477
    11  O   -0.000000   0.000002   0.000000  -0.000051  -0.000493  -0.027113
    12  N   -0.000005  -0.000553  -0.016682   0.000257   0.000003  -0.000000
    13  H    0.000000  -0.000000  -0.000000   0.000000   0.000000   0.000000
    14  H    0.000293  -0.002238  -0.001494   0.111846  -0.000858  -0.002767
    15  H    0.000000   0.000022   0.000159  -0.000001  -0.000000  -0.000000
    16  H    0.000487   0.000445   0.092031  -0.002417   0.000017   0.000000
    17  C   -0.051322  -0.013810   0.000063  -0.050939   0.268242  -0.076608
    18  C    0.282833  -0.048092   0.000926  -0.010282  -0.081578   0.003248
    19  N    7.216683   0.113603  -0.066636  -0.081469  -0.013009   0.000009
    20  C    0.113603   4.529890   0.486189   0.225032  -0.041421   0.001619
    21  O   -0.066636   0.486189   8.034196  -0.059722   0.000673  -0.000002
    22  N   -0.081469   0.225032  -0.059722   7.238620   0.354299  -0.062784
    23  C   -0.013009  -0.041421   0.000673   0.354299   4.662529   0.331583
    24  N    0.000009   0.001619  -0.000002  -0.062784   0.331583   7.053447
    25  H    0.301345  -0.011493   0.005740   0.003132   0.000062   0.000003
    26  H    0.002261   0.000457   0.000001   0.002123  -0.028831  -0.003136
    27  H   -0.037404   0.001190  -0.000023  -0.000102   0.003574  -0.000030
    28  H    0.000001  -0.000034  -0.000002  -0.001557  -0.018331   0.193910
    29  H    0.000007  -0.000082   0.000000   0.002728  -0.040210   0.322691
              25         26         27         28         29
     1  C    0.000000   0.000000  -0.000000   0.000000   0.000000
     2  N   -0.000000  -0.000000   0.000000   0.000001  -0.000000
     3  C    0.000000   0.000000  -0.000000   0.001908   0.000001
     4  C   -0.000000   0.000000   0.000000  -0.000037  -0.000000
     5  N    0.000000   0.000000  -0.000000   0.000000   0.000000
     6  H   -0.000000  -0.000000   0.000000  -0.000000  -0.000000
     7  N    0.000000   0.000000  -0.000000   0.000001   0.000000
     8  C    0.000000   0.000000  -0.000000   0.000027   0.000000
     9  N    0.000000   0.000000  -0.000000  -0.002932  -0.000008
    10  C    0.000000   0.000000  -0.000000  -0.001488   0.000031
    11  O    0.000000   0.000000  -0.000000   0.122243   0.000461
    12  N    0.000000   0.000000  -0.000000  -0.000000  -0.000000
    13  H   -0.000000  -0.000000   0.000000  -0.000000  -0.000000
    14  H   -0.000009  -0.000006   0.000000   0.004443   0.000038
    15  H   -0.000000  -0.000000   0.000000   0.000000   0.000000
    16  H   -0.000016  -0.000000   0.000000   0.000000   0.000000
    17  C    0.003303   0.375359  -0.032628   0.001973  -0.001320
    18  C   -0.026845  -0.038904   0.371166  -0.000046   0.000241
    19  N    0.301345   0.002261  -0.037404   0.000001   0.000007
    20  C   -0.011493   0.000457   0.001190  -0.000034  -0.000082
    21  O    0.005740   0.000001  -0.000023  -0.000002   0.000000
    22  N    0.003132   0.002123  -0.000102  -0.001557   0.002728
    23  C    0.000062  -0.028831   0.003574  -0.018331  -0.040210
    24  N    0.000003  -0.003136  -0.000030   0.193910   0.322691
    25  H    0.406877  -0.000043  -0.003764  -0.000000  -0.000000
    26  H   -0.000043   0.520286  -0.003484  -0.000030   0.002389
    27  H   -0.003764  -0.003484   0.484856   0.000000  -0.000000
    28  H   -0.000000  -0.000030   0.000000   0.368589  -0.010640
    29  H   -0.000000   0.002389  -0.000000  -0.010640   0.429528
 Mulliken charges:
               1
     1  C    0.235826
     2  N   -0.496509
     3  C    0.114672
     4  C    0.555806
     5  N   -0.691567
     6  H    0.304245
     7  N   -0.615151
     8  C    0.780745
     9  N   -0.762374
    10  C    0.588679
    11  O   -0.506153
    12  N   -0.752810
    13  H    0.191686
    14  H    0.348437
    15  H    0.296257
    16  H    0.316273
    17  C   -0.240650
    18  C    0.140246
    19  N   -0.667673
    20  C    0.759349
    21  O   -0.475280
    22  N   -0.640333
    23  C    0.604279
    24  N   -0.734059
    25  H    0.321708
    26  H    0.171558
    27  H    0.216650
    28  H    0.341998
    29  H    0.294145
 Sum of Mulliken charges =  -0.00000
 Mulliken charges with hydrogens summed into heavy atoms:
               1
     1  C    0.427512
     2  N   -0.496509
     3  C    0.114672
     4  C    0.555806
     5  N   -0.387322
     7  N   -0.615151
     8  C    0.780745
     9  N   -0.413937
    10  C    0.588679
    11  O   -0.506153
    12  N   -0.140279
    17  C   -0.069092
    18  C    0.356896
    19  N   -0.345966
    20  C    0.759349
    21  O   -0.475280
    22  N   -0.640333
    23  C    0.604279
    24  N   -0.097915
 Electronic spatial extent (au):  <R**2>=           6108.5177
 Charge=             -0.0000 electrons
 Dipole moment (field-independent basis, Debye):
    X=             -6.5269    Y=              1.3997    Z=              0.0000  Tot=              6.6753
 Quadrupole moment (field-independent basis, Debye-Ang):
   XX=            -57.4260   YY=           -105.1555   ZZ=           -111.5625
   XY=             16.2133   XZ=              0.0001   YZ=             -0.0001
 Traceless Quadrupole moment (field-independent basis, Debye-Ang):
   XX=             33.9554   YY=            -13.7742   ZZ=            -20.1812
   XY=             16.2133   XZ=              0.0001   YZ=             -0.0001
 Octapole moment (field-independent basis, Debye-Ang**2):
  XXX=            -80.8964  YYY=              8.5674  ZZZ=              0.0000  XYY=            -55.0915
  XXY=             37.8473  XXZ=              0.0001  XZZ=             -1.8942  YZZ=              3.5167
  YYZ=              0.0008  XYZ=              0.0004
 Hexadecapole moment (field-independent basis, Debye-Ang**3):
 XXXX=          -4236.1978 YYYY=          -1326.8825 ZZZZ=            -96.9084 XXXY=             83.5405
 XXXZ=              0.0017 YYYX=            165.9038 YYYZ=             -0.0010 ZZZX=             -0.0022
 ZZZY=             -0.0006 XXYY=          -1240.4304 XXZZ=          -1160.6030 YYZZ=           -277.7140
 XXYZ=             -0.0018 YYXZ=             -0.0010 ZZXY=            -15.5615
 N-N= 1.376516379643D+03 E-N=-4.937369667163D+03  KE= 9.294987801056D+02
 No NMR shielding tensors so no spin-rotation constants.
 Leave Link  601 at Thu Oct 26 08:06:44 2023, MaxMem=   805306368 cpu:               0.1 elap:               0.1
 (Enter /opt/gaussian/g16/l9999.exe)
 Unable to Open any file for archive entry.
 1\1\GINC-BIRDO\FOpt\RBLYP\4-21G\C9H10N8O2\HWANG\26-Oct-2023\0\\#P blyp
 /4-21G EmpiricalDispersion(GD3) scf(qc) opt(tight,maxcycle=100)\\Gauss
 ian input prepared by ASE\\0,1\C,4.9988072859,-0.8685428988,0.00000375
 57\N,3.9074322844,-1.6421394158,0.0000000321\C,2.8220927899,-0.7270960
 26,-0.0000030181\C,3.2873798396,0.6134126925,0.0000004023\N,4.67999528
 1,0.5152173497,0.0000052874\H,5.3203443779,1.31098162,0.0000064317\N,2
 .5622275588,1.7683792792,0.0000022264\C,1.2223075781,1.5396498595,-0.0
 000006133\N,0.6634889721,0.2588156116,-0.0000063194\C,1.4070390707,-0.
 9638832371,-0.0000115173\O,0.8021678458,-2.0902456973,-0.000017446\N,0
 .3645621454,2.5965527532,0.0000115645\H,6.0251195463,-1.2169651775,0.0
 00008338\H,-0.3953841451,0.1545100255,-0.0000031441\H,0.7916829454,3.5
 235816056,0.0000220719\H,-0.673414387,2.4928965263,0.0000157365\C,-4.1
 616502891,-1.4737885052,-0.0000039742\C,-4.9320433327,-0.3424225328,-0
 .0000156302\N,-4.3422481766,0.9058607111,-0.0000103539\C,-2.9083440575
 ,1.0804726881,-0.0000032357\O,-2.4510826118,2.2624924728,0.0000034981\
 N,-2.1431335841,-0.067119234,0.0000006317\C,-2.7141107389,-1.311963821
 ,0.0000005256\N,-1.8883292268,-2.3754377152,0.0000187422\H,-4.89752438
 21,1.7664883113,-0.0000115813\H,-4.6150279663,-2.4619642924,0.00000991
 72\H,-6.0212058604,-0.3726845971,-0.0000144182\H,-0.8218109565,-2.2498
 707618,0.0000085081\H,-2.2783648064,-3.3209985945,0.0000265822\\Versio
 n=ES64L-G16RevC.01\State=1-A\HF=-935.2925924\RMSD=2.878e-11\RMSF=5.760
 e-07\Dipole=-2.567875,0.550674,0.0000147\Quadrupole=25.2449881,-10.240
 76,-15.0042281,12.0541374,0.0000708,-0.0000619\PG=C01 [X(C9H10N8O2)]\\
 @
 The archive entry for this job was punched.


 SOME PHYSICISTS WOULD PREFER TO COME BACK TO THE IDEA OF AN OBJECTIVE
 REAL WORLD WHOSE SMALLEST PARTS EXIST OBJECTIVELY IN THE SAME SENSE AS
 STONES OR TREES EXIST INDEPENDENTLY OF WHETHER WE OBSERVE THEM.
 THIS, HOWEVER, IS IMPOSSIBLE.  -- WERNER HEISENBERG
 Job cpu time:       0 days  0 hours 15 minutes 22.8 seconds.
 Elapsed time:       0 days  0 hours 15 minutes 22.6 seconds.
 File lengths (MBytes):  RWF=     19 Int=      0 D2E=      0 Chk=      4 Scr=      1
 Normal termination of Gaussian 16 at Thu Oct 26 08:06:44 2023.
n of Gaussian 16 at Thu Oct 26 08:05:53 2023.
