 Entering Gaussian System, Link 0=g16
 Input=dist.com
 Output=dist.com.out
 Initial command:
 /opt/gaussian/g16/l1.exe "/mnt/scratch/hwang/Gau-1850667.inp" -scrdir="/mnt/scratch/hwang/"
 Entering Link 1 = /opt/gaussian/g16/l1.exe PID=   1850669.
  
 Copyright (c) 1988-2019, Gaussian, Inc.  All Rights Reserved.
  
 This is part of the Gaussian(R) 16 program.  It is based on
 the Gaussian(R) 09 system (copyright 2009, Gaussian, Inc.),
 the Gaussian(R) 03 system (copyright 2003, Gaussian, Inc.),
 the Gaussian(R) 98 system (copyright 1998, Gaussian, Inc.),
 the Gaussian(R) 94 system (copyright 1995, Gaussian, Inc.),
 the Gaussian 92(TM) system (copyright 1992, Gaussian, Inc.),
 the Gaussian 90(TM) system (copyright 1990, Gaussian, Inc.),
 the Gaussian 88(TM) system (copyright 1988, Gaussian, Inc.),
 the Gaussian 86(TM) system (copyright 1986, Carnegie Mellon
 University), and the Gaussian 82(TM) system (copyright 1983,
 Carnegie Mellon University). Gaussian is a federally registered
 trademark of Gaussian, Inc.
  
 This software contains proprietary and confidential information,
 including trade secrets, belonging to Gaussian, Inc.
  
 This software is provided under written license and may be
 used, copied, transmitted, or stored only in accord with that
 written license.
  
 The following legend is applicable only to US Government
 contracts under FAR:
  
                    RESTRICTED RIGHTS LEGEND
  
 Use, reproduction and disclosure by the US Government is
 subject to restrictions as set forth in subparagraphs (a)
 and (c) of the Commercial Computer Software - Restricted
 Rights clause in FAR 52.227-19.
  
 Gaussian, Inc.
 340 Quinnipiac St., Bldg. 40, Wallingford CT 06492
  
  
 ---------------------------------------------------------------
 Warning -- This program may not be used in any manner that
 competes with the business of Gaussian, Inc. or will provide
 assistance to any competitor of Gaussian, Inc.  The licensee
 of this program is prohibited from giving any competitor of
 Gaussian, Inc. access to this program.  By using this program,
 the user acknowledges that Gaussian, Inc. is engaged in the
 business of creating and licensing software in the field of
 computational chemistry and represents and warrants to the
 licensee that it is not a competitor of Gaussian, Inc. and that
 it will not use this program in any manner prohibited above.
 ---------------------------------------------------------------
  

 Cite this work as:
 Gaussian 16, Revision C.01,
 M. J. Frisch, G. W. Trucks, H. B. Schlegel, G. E. Scuseria, 
 M. A. Robb, J. R. Cheeseman, G. Scalmani, V. Barone, 
 G. A. Petersson, H. Nakatsuji, X. Li, M. Caricato, A. V. Marenich, 
 J. Bloino, B. G. Janesko, R. Gomperts, B. Mennucci, H. P. Hratchian, 
 J. V. Ortiz, A. F. Izmaylov, J. L. Sonnenberg, D. Williams-Young, 
 F. Ding, F. Lipparini, F. Egidi, J. Goings, B. Peng, A. Petrone, 
 T. Henderson, D. Ranasinghe, V. G. Zakrzewski, J. Gao, N. Rega, 
 G. Zheng, W. Liang, M. Hada, M. Ehara, K. Toyota, R. Fukuda, 
 J. Hasegawa, M. Ishida, T. Nakajima, Y. Honda, O. Kitao, H. Nakai, 
 T. Vreven, K. Throssell, J. A. Montgomery, Jr., J. E. Peralta, 
 F. Ogliaro, M. J. Bearpark, J. J. Heyd, E. N. Brothers, K. N. Kudin, 
 V. N. Staroverov, T. A. Keith, R. Kobayashi, J. Normand, 
 K. Raghavachari, A. P. Rendell, J. C. Burant, S. S. Iyengar, 
 J. Tomasi, M. Cossi, J. M. Millam, M. Klene, C. Adamo, R. Cammi, 
 J. W. Ochterski, R. L. Martin, K. Morokuma, O. Farkas, 
 J. B. Foresman, and D. J. Fox, Gaussian, Inc., Wallingford CT, 2019.
 
 ******************************************
 Gaussian 16:  ES64L-G16RevC.01  3-Jul-2019
                29-Oct-2023 
 ******************************************
 %mem=6GB
 ----------------------------------------------------------------------
 #P blyp/4-21G EmpiricalDispersion(GD3) scf(qc) opt(tight,maxcycle=100,
 ModRedundant)
 ----------------------------------------------------------------------
 1/6=100,7=10,18=120,19=15,26=3,38=1/1,3;
 2/9=110,12=2,17=6,18=5,40=1/2;
 3/5=5,6=4,11=2,25=1,30=1,71=1,74=402,124=31/1,2,3;
 4//1;
 5/5=2,8=3,38=5/8;
 6/7=2,8=2,9=2,10=2,28=1/1;
 7//1,2,3,16;
 1/6=100,7=10,18=20,19=15,26=3/3(2);
 2/9=110/2;
 99//99;
 2/9=110/2;
 3/5=5,6=4,11=2,25=1,30=1,71=1,74=402,124=31/1,2,3;
 4/5=5,16=3,69=1/1;
 5/5=2,8=3,38=5/8;
 7//1,2,3,16;
 1/6=100,7=10,18=20,19=15,26=3/3(-5);
 2/9=110/2;
 6/7=2,8=2,9=2,10=2,19=2,28=1/1;
 99/9=1/99;
 Leave Link    1 at Sun Oct 29 08:21:08 2023, MaxMem=   805306368 cpu:               0.0 elap:               0.0
 (Enter /opt/gaussian/g16/l101.exe)
 ------------------------------
 Gaussian input prepared by ASE
 ------------------------------
 Symbolic Z-matrix:
 Charge =  0 Multiplicity = 1
 C                     4.99881  -0.86853   0. 
 N                     3.90744  -1.64213  0. 
 C                     2.8221   -0.72709  0. 
 C                     3.28738   0.61342   0.00001 
 N                     4.67999   0.51523   0.00001 
 H                     5.32034   1.31099   0.00001 
 N                     2.56222   1.76838   0.00001 
 C                     1.2223    1.53965   0. 
 N                     0.66349   0.25881  -0.00001 
 C                     1.40704  -0.96388  -0.00001 
 O                     0.80217  -2.09025  -0.00002 
 N                     0.36455   2.59655   0.00001 
 H                     6.02512  -1.21695   0.00001 
 H                    -0.39538   0.1545   -0.00001 
 H                     0.79167   3.52358   0.00001 
 H                    -0.67342   2.49288   0. 
 C                    -4.16165  -1.47379   0. 
 C                    -4.93204  -0.34242  0. 
 N                    -4.34225   0.90586  -0.00001 
 C                    -2.90834   1.08047  0. 
 O                    -2.45108   2.26249  -0.00001 
 N                    -2.14313  -0.06712   0. 
 C                    -2.71411  -1.31197   0.00001 
 N                    -1.88833  -2.37544   0.00001 
 H                    -4.89752   1.76649  -0.00001 
 H                    -4.61503  -2.46196   0.00001 
 H                    -6.02121  -0.37268  -0.00001 
 H                    -0.82181  -2.24987   0. 
 H                    -2.27836  -3.321     0.00001 
 
 Add virtual bond connecting atoms N22        and H14        Dist= 3.33D+00.
 Add virtual bond connecting atoms H28        and O11        Dist= 3.08D+00.
 The following ModRedundant input section has been read:
 B      11      28 1.7318 B                                                    
 B      14      22 1.8617 B                                                    
 B      16      21 1.8925 B                                                    
 B      11      28 F                                                           
 B      14      22 F                                                           
 B      16      21 F                                                           
 
 Iteration  1 RMS(Cart)=  0.03945428 RMS(Int)=  0.00006749
 Iteration  2 RMS(Cart)=  0.00001797 RMS(Int)=  0.00006684
 Iteration  3 RMS(Cart)=  0.00000000 RMS(Int)=  0.00006684
 Iteration  1 RMS(Cart)=  0.00000052 RMS(Int)=  0.00000019
 ITRead=  0  0  0  0  0  0  0  0  0  0  0  0  0  0  0  0  0  0  0  0
 ITRead=  0  0  0  0  0  0  0  0  0
 MicOpt= -1 -1 -1 -1 -1 -1 -1 -1 -1 -1 -1 -1 -1 -1 -1 -1 -1 -1 -1 -1
 MicOpt= -1 -1 -1 -1 -1 -1 -1 -1 -1
 NAtoms=     29 NQM=       29 NQMF=       0 NMMI=      0 NMMIF=      0
                NMic=       0 NMicF=      0.
                    Isotopes and Nuclear Properties:
 (Nuclear quadrupole moments (NQMom) in fm**2, nuclear magnetic moments (NMagM)
  in nuclear magnetons)

  Atom         1           2           3           4           5           6           7           8           9          10
 IAtWgt=          12          14          12          12          14           1          14          12          14          12
 AtmWgt=  12.0000000  14.0030740  12.0000000  12.0000000  14.0030740   1.0078250  14.0030740  12.0000000  14.0030740  12.0000000
 NucSpn=           0           2           0           0           2           1           2           0           2           0
 AtZEff=  -0.0000000  -0.0000000  -0.0000000  -0.0000000  -0.0000000  -0.0000000  -0.0000000  -0.0000000  -0.0000000  -0.0000000
 NQMom=    0.0000000   2.0440000   0.0000000   0.0000000   2.0440000   0.0000000   2.0440000   0.0000000   2.0440000   0.0000000
 NMagM=    0.0000000   0.4037610   0.0000000   0.0000000   0.4037610   2.7928460   0.4037610   0.0000000   0.4037610   0.0000000
 AtZNuc=   6.0000000   7.0000000   6.0000000   6.0000000   7.0000000   1.0000000   7.0000000   6.0000000   7.0000000   6.0000000

  Atom        11          12          13          14          15          16          17          18          19          20
 IAtWgt=          16          14           1           1           1           1          12          12          14          12
 AtmWgt=  15.9949146  14.0030740   1.0078250   1.0078250   1.0078250   1.0078250  12.0000000  12.0000000  14.0030740  12.0000000
 NucSpn=           0           2           1           1           1           1           0           0           2           0
 AtZEff=  -0.0000000  -0.0000000  -0.0000000  -0.0000000  -0.0000000  -0.0000000  -0.0000000  -0.0000000  -0.0000000  -0.0000000
 NQMom=    0.0000000   2.0440000   0.0000000   0.0000000   0.0000000   0.0000000   0.0000000   0.0000000   2.0440000   0.0000000
 NMagM=    0.0000000   0.4037610   2.7928460   2.7928460   2.7928460   2.7928460   0.0000000   0.0000000   0.4037610   0.0000000
 AtZNuc=   8.0000000   7.0000000   1.0000000   1.0000000   1.0000000   1.0000000   6.0000000   6.0000000   7.0000000   6.0000000

  Atom        21          22          23          24          25          26          27          28          29
 IAtWgt=          16          14          12          14           1           1           1           1           1
 AtmWgt=  15.9949146  14.0030740  12.0000000  14.0030740   1.0078250   1.0078250   1.0078250   1.0078250   1.0078250
 NucSpn=           0           2           0           2           1           1           1           1           1
 AtZEff=  -0.0000000  -0.0000000  -0.0000000  -0.0000000  -0.0000000  -0.0000000  -0.0000000  -0.0000000  -0.0000000
 NQMom=    0.0000000   2.0440000   0.0000000   2.0440000   0.0000000   0.0000000   0.0000000   0.0000000   0.0000000
 NMagM=    0.0000000   0.4037610   0.0000000   0.4037610   2.7928460   2.7928460   2.7928460   2.7928460   2.7928460
 AtZNuc=   8.0000000   7.0000000   6.0000000   7.0000000   1.0000000   1.0000000   1.0000000   1.0000000   1.0000000
 Leave Link  101 at Sun Oct 29 08:21:09 2023, MaxMem=   805306368 cpu:               0.1 elap:               0.2
 (Enter /opt/gaussian/g16/l103.exe)

 GradGradGradGradGradGradGradGradGradGradGradGradGradGradGradGradGradGrad
 Berny optimization.
 Initialization pass.
                           ----------------------------
                           !    Initial Parameters    !
                           ! (Angstroms and Degrees)  !
 --------------------------                            --------------------------
 ! Name  Definition              Value          Derivative Info.                !
 --------------------------------------------------------------------------------
 ! R1    R(1,2)                  1.3377         estimate D2E/DX2                !
 ! R2    R(1,5)                  1.42           estimate D2E/DX2                !
 ! R3    R(1,13)                 1.0838         estimate D2E/DX2                !
 ! R4    R(2,3)                  1.4196         estimate D2E/DX2                !
 ! R5    R(3,4)                  1.419          estimate D2E/DX2                !
 ! R6    R(3,10)                 1.4347         estimate D2E/DX2                !
 ! R7    R(4,5)                  1.3961         estimate D2E/DX2                !
 ! R8    R(4,7)                  1.3637         estimate D2E/DX2                !
 ! R9    R(5,6)                  1.0214         estimate D2E/DX2                !
 ! R10   R(7,8)                  1.3593         estimate D2E/DX2                !
 ! R11   R(8,9)                  1.3975         estimate D2E/DX2                !
 ! R12   R(8,12)                 1.3612         estimate D2E/DX2                !
 ! R13   R(9,10)                 1.4311         estimate D2E/DX2                !
 ! R14   R(9,14)                 1.064          estimate D2E/DX2                !
 ! R15   R(10,11)                1.2786         estimate D2E/DX2                !
 ! R16   R(11,28)                1.7318         Frozen                          !
 ! R17   R(12,15)                1.0207         estimate D2E/DX2                !
 ! R18   R(12,16)                1.0431         estimate D2E/DX2                !
 ! R19   R(14,22)                1.8617         Frozen                          !
 ! R20   R(16,21)                1.8925         Frozen                          !
 ! R21   R(17,18)                1.3688         estimate D2E/DX2                !
 ! R22   R(17,23)                1.4565         estimate D2E/DX2                !
 ! R23   R(17,26)                1.0872         estimate D2E/DX2                !
 ! R24   R(18,19)                1.3806         estimate D2E/DX2                !
 ! R25   R(18,27)                1.0896         estimate D2E/DX2                !
 ! R26   R(19,20)                1.4445         estimate D2E/DX2                !
 ! R27   R(19,25)                1.0242         estimate D2E/DX2                !
 ! R28   R(20,21)                1.2674         estimate D2E/DX2                !
 ! R29   R(20,22)                1.3793         estimate D2E/DX2                !
 ! R30   R(22,23)                1.3695         estimate D2E/DX2                !
 ! R31   R(23,24)                1.3464         estimate D2E/DX2                !
 ! R32   R(24,28)                1.0739         estimate D2E/DX2                !
 ! R33   R(24,29)                1.0228         estimate D2E/DX2                !
 ! A1    A(2,1,5)              112.3555         estimate D2E/DX2                !
 ! A2    A(2,1,13)             125.9183         estimate D2E/DX2                !
 ! A3    A(5,1,13)             121.7263         estimate D2E/DX2                !
 ! A4    A(1,2,3)              104.5365         estimate D2E/DX2                !
 ! A5    A(2,3,4)              110.9915         estimate D2E/DX2                !
 ! A6    A(2,3,10)             130.3641         estimate D2E/DX2                !
 ! A7    A(4,3,10)             118.6444         estimate D2E/DX2                !
 ! A8    A(3,4,5)              105.109          estimate D2E/DX2                !
 ! A9    A(3,4,7)              128.7354         estimate D2E/DX2                !
 ! A10   A(5,4,7)              126.1556         estimate D2E/DX2                !
 ! A11   A(1,5,4)              107.0075         estimate D2E/DX2                !
 ! A12   A(1,5,6)              128.2023         estimate D2E/DX2                !
 ! A13   A(4,5,6)              124.7902         estimate D2E/DX2                !
 ! A14   A(4,7,8)              112.4366         estimate D2E/DX2                !
 ! A15   A(7,8,9)              123.2595         estimate D2E/DX2                !
 ! A16   A(7,8,12)             119.3691         estimate D2E/DX2                !
 ! A17   A(9,8,12)             117.3714         estimate D2E/DX2                !
 ! A18   A(8,9,10)             125.1218         estimate D2E/DX2                !
 ! A19   A(8,9,14)             119.1914         estimate D2E/DX2                !
 ! A20   A(10,9,14)            115.6868         estimate D2E/DX2                !
 ! A21   A(3,10,9)             111.8024         estimate D2E/DX2                !
 ! A22   A(3,10,11)            127.7224         estimate D2E/DX2                !
 ! A23   A(9,10,11)            120.4753         estimate D2E/DX2                !
 ! A24   A(10,11,28)           123.8695         estimate D2E/DX2                !
 ! A25   A(8,12,15)            116.199          estimate D2E/DX2                !
 ! A26   A(8,12,16)            123.3626         estimate D2E/DX2                !
 ! A27   A(15,12,16)           120.4384         estimate D2E/DX2                !
 ! A28   A(18,17,23)           117.8705         estimate D2E/DX2                !
 ! A29   A(18,17,26)           121.1033         estimate D2E/DX2                !
 ! A30   A(23,17,26)           121.0262         estimate D2E/DX2                !
 ! A31   A(17,18,19)           120.4572         estimate D2E/DX2                !
 ! A32   A(17,18,27)           122.6612         estimate D2E/DX2                !
 ! A33   A(19,18,27)           116.8817         estimate D2E/DX2                !
 ! A34   A(18,19,20)           122.2326         estimate D2E/DX2                !
 ! A35   A(18,19,25)           121.8801         estimate D2E/DX2                !
 ! A36   A(20,19,25)           115.8873         estimate D2E/DX2                !
 ! A37   A(19,20,21)           118.0965         estimate D2E/DX2                !
 ! A38   A(19,20,22)           116.7507         estimate D2E/DX2                !
 ! A39   A(21,20,22)           125.1528         estimate D2E/DX2                !
 ! A40   A(16,21,20)           118.5275         estimate D2E/DX2                !
 ! A41   A(14,22,20)           116.4758         estimate D2E/DX2                !
 ! A42   A(14,22,23)           121.8574         estimate D2E/DX2                !
 ! A43   A(20,22,23)           121.6668         estimate D2E/DX2                !
 ! A44   A(17,23,22)           121.0222         estimate D2E/DX2                !
 ! A45   A(17,23,24)           121.4642         estimate D2E/DX2                !
 ! A46   A(22,23,24)           117.5135         estimate D2E/DX2                !
 ! A47   A(23,24,28)           121.1002         estimate D2E/DX2                !
 ! A48   A(23,24,29)           119.7622         estimate D2E/DX2                !
 ! A49   A(28,24,29)           119.1376         estimate D2E/DX2                !
 ! A50   L(9,14,22,11,-1)      178.4019         estimate D2E/DX2                !
 ! A51   L(12,16,21,11,-1)     178.3205         estimate D2E/DX2                !
 ! A52   L(11,28,24,12,-1)     181.0954         estimate D2E/DX2                !
 ! A53   L(9,14,22,11,-2)      179.9996         estimate D2E/DX2                !
 ! A54   L(12,16,21,11,-2)     180.0001         estimate D2E/DX2                !
 ! A55   L(11,28,24,12,-2)     179.9998         estimate D2E/DX2                !
 ! D1    D(5,1,2,3)              0.0            estimate D2E/DX2                !
 ! D2    D(13,1,2,3)           180.0            estimate D2E/DX2                !
 ! D3    D(2,1,5,4)              0.0            estimate D2E/DX2                !
 ! D4    D(2,1,5,6)           -179.9998         estimate D2E/DX2                !
 ! D5    D(13,1,5,4)          -180.0            estimate D2E/DX2                !
 ! D6    D(13,1,5,6)             0.0002         estimate D2E/DX2                !
 ! D7    D(1,2,3,4)              0.0            estimate D2E/DX2                !
 ! D8    D(1,2,3,10)           180.0            estimate D2E/DX2                !
 ! D9    D(2,3,4,5)              0.0            estimate D2E/DX2                !
 ! D10   D(2,3,4,7)            180.0            estimate D2E/DX2                !
 ! D11   D(10,3,4,5)          -180.0            estimate D2E/DX2                !
 ! D12   D(10,3,4,7)             0.0001         estimate D2E/DX2                !
 ! D13   D(2,3,10,9)          -180.0            estimate D2E/DX2                !
 ! D14   D(2,3,10,11)           -0.0001         estimate D2E/DX2                !
 ! D15   D(4,3,10,9)             0.0            estimate D2E/DX2                !
 ! D16   D(4,3,10,11)          179.9998         estimate D2E/DX2                !
 ! D17   D(3,4,5,1)              0.0            estimate D2E/DX2                !
 ! D18   D(3,4,5,6)            179.9998         estimate D2E/DX2                !
 ! D19   D(7,4,5,1)            180.0            estimate D2E/DX2                !
 ! D20   D(7,4,5,6)             -0.0002         estimate D2E/DX2                !
 ! D21   D(3,4,7,8)              0.0            estimate D2E/DX2                !
 ! D22   D(5,4,7,8)           -180.0            estimate D2E/DX2                !
 ! D23   D(4,7,8,9)              0.0            estimate D2E/DX2                !
 ! D24   D(4,7,8,12)           180.0            estimate D2E/DX2                !
 ! D25   D(7,8,9,10)             0.0            estimate D2E/DX2                !
 ! D26   D(7,8,9,14)           179.9998         estimate D2E/DX2                !
 ! D27   D(12,8,9,10)         -179.9999         estimate D2E/DX2                !
 ! D28   D(12,8,9,14)           -0.0001         estimate D2E/DX2                !
 ! D29   D(7,8,12,15)           -0.0001         estimate D2E/DX2                !
 ! D30   D(7,8,12,16)         -180.0            estimate D2E/DX2                !
 ! D31   D(9,8,12,15)          179.9999         estimate D2E/DX2                !
 ! D32   D(9,8,12,16)            0.0            estimate D2E/DX2                !
 ! D33   D(8,9,10,3)             0.0            estimate D2E/DX2                !
 ! D34   D(8,9,10,11)         -179.9999         estimate D2E/DX2                !
 ! D35   D(14,9,10,3)         -179.9998         estimate D2E/DX2                !
 ! D36   D(14,9,10,11)           0.0003         estimate D2E/DX2                !
 ! D37   D(8,9,22,20)            0.0008         estimate D2E/DX2                !
 ! D38   D(8,9,22,23)         -179.9995         estimate D2E/DX2                !
 ! D39   D(10,9,22,20)        -179.9996         estimate D2E/DX2                !
 ! D40   D(10,9,22,23)           0.0001         estimate D2E/DX2                !
 ! D41   D(3,10,11,28)         179.9989         estimate D2E/DX2                !
 ! D42   D(9,10,11,28)          -0.0013         estimate D2E/DX2                !
 ! D43   D(10,11,24,23)          0.0016         estimate D2E/DX2                !
 ! D44   D(10,11,24,29)       -179.9994         estimate D2E/DX2                !
 ! D45   D(8,12,21,20)           0.0007         estimate D2E/DX2                !
 ! D46   D(15,12,21,20)       -179.9993         estimate D2E/DX2                !
 ! D47   D(23,17,18,19)          0.0001         estimate D2E/DX2                !
 ! D48   D(23,17,18,27)       -180.0            estimate D2E/DX2                !
 ! D49   D(26,17,18,19)        179.9999         estimate D2E/DX2                !
 ! D50   D(26,17,18,27)         -0.0002         estimate D2E/DX2                !
 ! D51   D(18,17,23,22)         -0.0001         estimate D2E/DX2                !
 ! D52   D(18,17,23,24)        180.0            estimate D2E/DX2                !
 ! D53   D(26,17,23,22)       -179.9999         estimate D2E/DX2                !
 ! D54   D(26,17,23,24)          0.0002         estimate D2E/DX2                !
 ! D55   D(17,18,19,20)         -0.0001         estimate D2E/DX2                !
 ! D56   D(17,18,19,25)        179.9999         estimate D2E/DX2                !
 ! D57   D(27,18,19,20)        180.0            estimate D2E/DX2                !
 ! D58   D(27,18,19,25)          0.0            estimate D2E/DX2                !
 ! D59   D(18,19,20,21)       -180.0            estimate D2E/DX2                !
 ! D60   D(18,19,20,22)          0.0001         estimate D2E/DX2                !
 ! D61   D(25,19,20,21)          0.0            estimate D2E/DX2                !
 ! D62   D(25,19,20,22)       -179.9999         estimate D2E/DX2                !
 ! D63   D(19,20,21,16)        179.9998         estimate D2E/DX2                !
 ! D64   D(22,20,21,16)         -0.0003         estimate D2E/DX2                !
 ! D65   D(19,20,22,14)        179.9995         estimate D2E/DX2                !
 ! D66   D(19,20,22,23)          0.0            estimate D2E/DX2                !
 ! D67   D(21,20,22,14)         -0.0004         estimate D2E/DX2                !
 ! D68   D(21,20,22,23)       -179.9999         estimate D2E/DX2                !
 ! D69   D(14,22,23,17)       -179.9995         estimate D2E/DX2                !
 ! D70   D(14,22,23,24)          0.0004         estimate D2E/DX2                !
 ! D71   D(20,22,23,17)          0.0            estimate D2E/DX2                !
 ! D72   D(20,22,23,24)        180.0            estimate D2E/DX2                !
 ! D73   D(17,23,24,28)        179.9993         estimate D2E/DX2                !
 ! D74   D(17,23,24,29)          0.0001         estimate D2E/DX2                !
 ! D75   D(22,23,24,28)         -0.0007         estimate D2E/DX2                !
 ! D76   D(22,23,24,29)       -179.9998         estimate D2E/DX2                !
 --------------------------------------------------------------------------------
 Trust Radius=3.00D-01 FncErr=1.00D-07 GrdErr=1.00D-06 EigMax=2.50D+02 EigMin=1.00D-04
 Number of steps in this run=    100 maximum allowed number of steps=    174.
 GradGradGradGradGradGradGradGradGradGradGradGradGradGradGradGradGradGrad

 Leave Link  103 at Sun Oct 29 08:21:09 2023, MaxMem=   805306368 cpu:               0.0 elap:               0.0
 (Enter /opt/gaussian/g16/l202.exe)
                          Input orientation:                          
 ---------------------------------------------------------------------
 Center     Atomic      Atomic             Coordinates (Angstroms)
 Number     Number       Type             X           Y           Z
 ---------------------------------------------------------------------
      1          6           0        5.043770   -0.859933    0.000004
      2          7           0        3.952877   -1.634204   -0.000003
      3          6           0        2.866960   -0.719842   -0.000002
      4          6           0        3.331418    0.620945    0.000005
      5          7           0        4.724094    0.523622    0.000009
      6          1           0        5.363945    1.319788    0.000012
      7          7           0        2.605566    1.775449    0.000008
      8          6           0        1.265790    1.545918    0.000003
      9          7           0        0.707705    0.264732   -0.000005
     10          6           0        1.452058   -0.957577   -0.000008
     11          8           0        0.848179   -2.084539   -0.000018
     12          7           0        0.407498    2.602397    0.000006
     13          1           0        6.070299   -1.207717    0.000006
     14          1           0       -0.351122    0.159914   -0.000006
     15          1           0        0.834178    3.529628    0.000013
     16          1           0       -0.630430    2.498284    0.000003
     17          6           0       -4.215610   -1.482968    0.000002
     18          6           0       -4.986687   -0.352054   -0.000003
     19          7           0       -4.397625    0.896598   -0.000007
     20          6           0       -2.963815    1.072054   -0.000003
     21          8           0       -2.507157    2.254287   -0.000007
     22          7           0       -2.197976   -0.075086    0.000003
     23          6           0       -2.768185   -1.320194    0.000006
     24          7           0       -1.941486   -2.382879    0.000011
     25          1           0       -4.953409    1.756897   -0.000013
     26          1           0       -4.668367   -2.471427    0.000006
     27          1           0       -6.075831   -0.382965   -0.000006
     28          1           0       -0.875110   -2.256090    0.000002
     29          1           0       -2.330554   -3.328837    0.000010
 ---------------------------------------------------------------------
                    Distance matrix (angstroms):
                    1          2          3          4          5
     1  C    0.000000
     2  N    1.337738   0.000000
     3  C    2.181313   1.419603   0.000000
     4  C    2.263879   2.339211   1.418955   0.000000
     5  N    1.420007   2.291504   2.234984   1.396072   0.000000
     6  H    2.203110   3.273710   3.224132   2.149313   1.021415
     7  N    3.590275   3.666194   2.508945   1.363723   2.460738
     8  C    4.478979   4.163366   2.774421   2.263271   3.606239
     9  N    4.479545   3.759933   2.373134   2.647784   4.024724
    10  C    3.593039   2.590737   1.434735   2.454329   3.591682
    11  O    4.370656   3.137188   2.436775   3.672345   4.671747
    12  N    5.786428   5.524355   4.133549   3.532062   4.791065
    13  H    1.083843   2.159946   3.240278   3.293246   2.193126
    14  H    5.490442   4.662968   3.336169   3.711287   5.088232
    15  H    6.081851   6.032532   4.710647   3.833620   4.916047
    16  H    6.593494   6.171236   4.752691   4.384135   5.707032
    17  C    9.280317   8.169886   7.123563   7.834799   9.162135
    18  C   10.043306   9.031041   7.862254   8.374819   9.750184
    19  N    9.603402   8.725585   7.442249   7.733957   9.129341
    20  C    8.237353   7.427278   6.099903   6.311375   7.707446
    21  O    8.167917   7.540053   6.142196   6.062736   7.435469
    22  N    7.284152   6.345379   5.105809   5.573030   6.947914
    23  C    7.825502   6.728393   5.667034   6.401030   7.715822
    24  N    7.149347   5.941719   5.087911   6.068482   7.271706
    25  H   10.333992   9.530031   8.203195   8.362341   9.755769
    26  H    9.844923   8.661800   7.736226   8.576673   9.858430
    27  H   11.129825  10.106462   8.949133   9.460664  10.837909
    28  H    6.081315   4.867874   4.045138   5.096294   6.251231
    29  H    7.776641   6.507941   5.815583   6.903529   8.038004
                    6          7          8          9         10
     6  H    0.000000
     7  N    2.795761   0.000000
     8  C    4.104389   1.359296   0.000000
     9  N    4.774276   2.425725   1.397461   0.000000
    10  C    4.526506   2.966482   2.510416   1.431118   0.000000
    11  O    5.655226   4.241216   3.654397   2.353466   1.278558
    12  N    5.119712   2.348478   1.361180   2.356863   3.710057
    13  H    2.624350   4.572051   5.537672   5.561071   4.625010
    14  H    5.831578   3.369267   2.129650   1.064003   2.121378
    15  H    5.040058   2.492982   2.030122   3.267345   4.529547
    16  H    6.109123   3.315744   2.121945   2.603721   4.034815
    17  C    9.981147   7.559479   6.262578   5.224316   5.691967
    18  C   10.484781   7.884705   6.534199   5.727698   6.467155
    19  N    9.770739   7.058120   5.700516   5.144283   6.136510
    20  C    8.331444   5.613623   4.256066   3.759232   4.859973
    21  O    7.926382   5.135097   3.838869   3.780697   5.098182
    22  N    7.689494   5.147669   3.824308   2.925485   3.755201
    23  C    8.549915   6.201630   4.948490   3.820184   4.235793
    24  N    8.190180   6.161766   5.071692   3.745404   3.680709
    25  H   10.326609   7.558998   6.222776   5.854466   6.956894
    26  H   10.724765   8.422948   7.166120   6.032306   6.304866
    27  H   11.565804   8.945692   7.590783   6.814387   7.549787
    28  H    7.191155   5.326200   4.363338   2.976549   2.664928
    29  H    8.989718   7.100636   6.057799   4.705822   4.464418
                   11         12         13         14         15
    11  O    0.000000
    12  N    4.707607   0.000000
    13  H    5.295219   6.825268   0.000000
    14  H    2.544778   2.557582   6.565445   0.000000
    15  H    5.614184   1.020693   7.061119   3.572102   0.000000
    16  H    4.815449   1.043136   7.657297   2.354992   1.791298
    17  C    5.099397   6.169548  10.289590   4.199205   7.115228
    18  C    6.086638   6.150285  11.090045   4.663751   6.996422
    19  N    6.033709   5.098917  10.677339   4.113014   5.857014
    20  C    4.949280   3.702391   9.317326   2.767338   4.523762
    21  O    5.484860   2.935369   9.249769   3.005808   3.576453
    22  N    3.649241   3.735962   8.345491   1.861745   4.710406
    23  C    3.696257   5.046948   8.839199   2.834240   6.041341
    24  N    2.805573   5.510961   8.097511   2.999175   6.531619
    25  H    6.958093   5.427172  11.415387   4.871488   6.052995
    26  H    5.530096   7.176914  10.812765   5.055943   8.141908
    27  H    7.130026   7.137642  12.174098   5.750392   7.940819
    28  H    1.731807   5.024935   7.024086   2.472173   6.032927
    29  H    3.413595   6.532723   8.664496   4.011177   7.553416
                   16         17         18         19         20
    16  H    0.000000
    17  C    5.357600   0.000000
    18  C    5.205901   1.368768   0.000000
    19  N    4.093551   2.386517   1.380625   0.000000
    20  C    2.734742   2.845194   2.473883   1.444506   0.000000
    21  O    1.892522   4.109244   3.597372   2.327485   1.267364
    22  N    3.013210   2.460279   2.802431   2.404709   1.379290
    23  C    4.376160   1.456548   2.420547   2.751226   2.400234
    24  N    5.054168   2.445706   3.660260   4.097266   3.603015
    25  H    4.386092   3.322810   2.109213   1.024211   2.104161
    26  H    6.403356   1.087217   2.143145   3.378890   3.932144
    27  H    6.160681   2.161117   1.089582   2.110369   3.435364
    28  H    4.760666   3.428798   4.531051   4.727320   3.929279
    29  H    6.070072   2.638308   3.989521   4.703944   4.446219
                   21         22         23         24         25
    21  O    0.000000
    22  N    2.349803   0.000000
    23  C    3.584000   1.369464   0.000000
    24  N    4.671541   2.322002   1.346377   0.000000
    25  H    2.496306   3.308863   3.774082   5.119514   0.000000
    26  H    5.196461   3.441697   2.221717   2.728318   4.237921
    27  H    4.437401   3.890057   3.437865   4.592653   2.416369
    28  H    4.796570   2.550834   2.111785   1.073887   5.721590
    29  H    5.585917   3.256451   2.055765   1.022845   5.722243
                   26         27         28         29
    26  H    0.000000
    27  H    2.518457   0.000000
    28  H    3.799364   5.527757   0.000000
    29  H    2.490084   4.765003   1.808067   0.000000
 Stoichiometry    C9H10N8O2
 Framework group  C1[X(C9H10N8O2)]
 Deg. of freedom    81
 Full point group                 C1      NOp   1
 Largest Abelian subgroup         C1      NOp   1
 Largest concise Abelian subgroup C1      NOp   1
                         Standard orientation:                         
 ---------------------------------------------------------------------
 Center     Atomic      Atomic             Coordinates (Angstroms)
 Number     Number       Type             X           Y           Z
 ---------------------------------------------------------------------
      1          6           0        5.038274   -0.879746    0.000004
      2          7           0        3.944400   -1.649799   -0.000003
      3          6           0        2.862021   -0.731251   -0.000002
      4          6           0        3.331653    0.607733    0.000005
      5          7           0        4.723943    0.505034    0.000009
      6          1           0        5.366863    1.298722    0.000012
      7          7           0        2.610264    1.765031    0.000008
      8          6           0        1.269612    1.540675    0.000003
      9          7           0        0.706584    0.261653   -0.000005
     10          6           0        1.446212   -0.963521   -0.000008
     11          8           0        0.837987   -2.088142   -0.000018
     12          7           0        0.415405    2.600460    0.000006
     13          1           0        6.063453   -1.231491    0.000006
     14          1           0       -0.352640    0.160924   -0.000006
     15          1           0        0.845663    3.526037    0.000013
     16          1           0       -0.622917    2.500355    0.000003
     17          6           0       -4.223442   -1.467024    0.000002
     18          6           0       -4.990147   -0.333141   -0.000003
     19          7           0       -4.396268    0.913227   -0.000007
     20          6           0       -2.961791    1.083146   -0.000003
     21          8           0       -2.500572    2.263606   -0.000007
     22          7           0       -2.200387   -0.066943    0.000003
     23          6           0       -2.775400   -1.309841    0.000006
     24          7           0       -1.952809   -2.375709    0.000011
     25          1           0       -4.948726    1.775665   -0.000013
     26          1           0       -4.680012   -2.453728    0.000006
     27          1           0       -6.079402   -0.359847   -0.000006
     28          1           0       -0.885952   -2.253039    0.000002
     29          1           0       -2.345528   -3.320159    0.000010
 ---------------------------------------------------------------------
 Rotational constants (GHZ):           0.8528307           0.1953591           0.1589485
 Leave Link  202 at Sun Oct 29 08:21:09 2023, MaxMem=   805306368 cpu:               0.0 elap:               0.0
 (Enter /opt/gaussian/g16/l301.exe)
 Standard basis: 4-21G (6D, 7F)
 Ernie: Thresh=  0.10000D-02 Tol=  0.10000D-05 Strict=F.
 There are   191 symmetry adapted cartesian basis functions of A   symmetry.
 There are   191 symmetry adapted basis functions of A   symmetry.
   191 basis functions,   334 primitive gaussians,   191 cartesian basis functions
    68 alpha electrons       68 beta electrons
       nuclear repulsion energy      1368.2838876794 Hartrees.
 IExCor=  402 DFT=T Ex=B Corr=LYP ExCW=0 ScaHFX=  0.000000
 ScaDFX=  1.000000  1.000000  1.000000  1.000000 ScalE2=  1.000000  1.000000
 IRadAn=      5 IRanWt=     -1 IRanGd=            0 ICorTp=0 IEmpDi=131
 NAtoms=   29 NActive=   29 NUniq=   29 SFac= 1.00D+00 NAtFMM=   60 NAOKFM=F Big=F
 Integral buffers will be    131072 words long.
 Raffenetti 2 integral format.
 Two-electron integral symmetry is turned on.
 R6Disp:  Grimme-D3 Dispersion energy=       -0.0316443913 Hartrees.
 Nuclear repulsion after empirical dispersion term =     1368.2522432880 Hartrees.
 Leave Link  301 at Sun Oct 29 08:21:09 2023, MaxMem=   805306368 cpu:               0.0 elap:               0.0
 (Enter /opt/gaussian/g16/l302.exe)
 NPDir=0 NMtPBC=     1 NCelOv=     1 NCel=       1 NClECP=     1 NCelD=      1
         NCelK=      1 NCelE2=     1 NClLst=     1 CellRange=     0.0.
 One-electron integrals computed using PRISM.
 One-electron integral symmetry used in STVInt
 NBasis=   191 RedAO= T EigKep=  4.17D-03  NBF=   191
 NBsUse=   191 1.00D-06 EigRej= -1.00D+00 NBFU=   191
 Precomputing XC quadrature grid using
 IXCGrd= 4 IRadAn=           5 IRanWt=          -1 IRanGd=           0 AccXCQ= 0.00D+00.
 Generated NRdTot=       0 NPtTot=           0 NUsed=           0 NTot=          32
 NSgBfM=   187   187   187   187   187 MxSgAt=    29 MxSgA2=    29.
 Leave Link  302 at Sun Oct 29 08:21:09 2023, MaxMem=   805306368 cpu:               0.3 elap:               0.3
 (Enter /opt/gaussian/g16/l303.exe)
 DipDrv:  MaxL=1.
 Leave Link  303 at Sun Oct 29 08:21:09 2023, MaxMem=   805306368 cpu:               0.0 elap:               0.0
 (Enter /opt/gaussian/g16/l401.exe)
 ExpMin= 1.83D-01 ExpMax= 9.38D+02 ExpMxC= 9.38D+02 IAcc=3 IRadAn=         5 AccDes= 0.00D+00
 Harris functional with IExCor=  402 and IRadAn=       5 diagonalized for initial guess.
 HarFok:  IExCor=  402 AccDes= 0.00D+00 IRadAn=         5 IDoV= 1 UseB2=F ITyADJ=14
 ICtDFT=  3500011 ScaDFX=  1.000000  1.000000  1.000000  1.000000
 FoFCou: FMM=F IPFlag=           0 FMFlag=      100000 FMFlg1=           0
         NFxFlg=           0 DoJE=T BraDBF=F KetDBF=T FulRan=T
         wScrn=  0.000000 ICntrl=       500 IOpCl=  0 I1Cent=   200000004 NGrid=           0
         NMat0=    1 NMatS0=      1 NMatT0=    0 NMatD0=    1 NMtDS0=    0 NMtDT0=    0
 Petite list used in FoFCou.
 Harris En= -935.427901564086    
 JPrj=0 DoOrth=F DoCkMO=F.
 Leave Link  401 at Sun Oct 29 08:21:11 2023, MaxMem=   805306368 cpu:               1.8 elap:               1.8
 (Enter /opt/gaussian/g16/l508.exe)
 Keep J ints in memory in canonical form, NReq=171655065.
 FoFCou: FMM=F IPFlag=           0 FMFlag=           0 FMFlg1=           0
         NFxFlg=           0 DoJE=F BraDBF=F KetDBF=F FulRan=T
         wScrn=  0.000000 ICntrl=       600 IOpCl=  0 I1Cent=           0 NGrid=           0
         NMat0=    1 NMatS0=  18336 NMatT0=    0 NMatD0=    1 NMtDS0=    0 NMtDT0=    0
 Symmetry not used in FoFCou.
 Two-electron integral symmetry not used.
 Tight linear equation convergence will be used.
 RB-LYP wavefunction.
 Quadratic Convergence SCF Method.
 Line search only if initial step raises energy.
 Iteration   1 EE= -934.942070030449                                    Grad=8.955D-01 Max rot=    5.8315 deg.
 Gradient too large for Newton-Raphson -- use scaled steepest descent instead.
 Alpha Gap=     0.038 HL deriv= 3.29D-03
     ILin= 1 X=0.000D+00 Y=-9.349420700304D+02 DE= 0.00D+00 F= -2.29D+00
     ILin= 2 X=3.000D-01 Y=-9.352561688395D+02 DE=-3.14D-01 F=  2.58D-01 OKLS=T
     Accept linear search using points  1 and  2.
     An  expanding polynomial of degree  2 produced  0.1436
 Iteration   2 EE= -935.187990475694     Delta-E=       -0.245920445245 Grad=4.802D-01 Max rot=    2.7597 deg.
 Gradient too large for Newton-Raphson -- use scaled steepest descent instead.
 Alpha Gap=     0.069 HL deriv= 5.94D-04
     ILin= 1 X=0.000D+00 Y=-9.351879904757D+02 DE= 0.00D+00 F= -5.49D-01
     ILin= 2 X=3.000D-01 Y=-9.352796104135D+02 DE=-9.16D-02 F= -5.93D-02 OKLS=F
     ILin= 3 X=4.000D-01 Y=-9.352772456458D+02 DE=-8.93D-02 F=  1.07D-01
     An  expanding polynomial of degree  3 produced  0.3356
 Iteration   3 EE= -935.280672817715     Delta-E=       -0.092682342020 Grad=1.475D-01 Max rot=    0.6127 deg.
 Gradient too large for Newton-Raphson -- use scaled steepest descent instead.
 Alpha Gap=     0.086 HL deriv= 1.83D-03
     ILin= 1 X=0.000D+00 Y=-9.352806728177D+02 DE= 0.00D+00 F= -4.47D-02
     ILin= 2 X=2.000D-01 Y=-9.352871092791D+02 DE=-6.44D-03 F= -1.97D-02 OKLS=F
     ILin= 3 X=4.000D-01 Y=-9.352885564587D+02 DE=-7.88D-03 F=  5.20D-03
     Accept linear search using points  2 and  3.
     An  expanding polynomial of degree  3 produced  0.2869
 Iteration   4 EE= -935.288349454468     Delta-E=       -0.007676636753 Grad=6.967D-02 Max rot=    0.2803 deg.
 Gradient too large for Newton-Raphson -- use scaled steepest descent instead.
 Alpha Gap=     0.083 HL deriv= 1.42D-04
     ILin= 1 X=0.000D+00 Y=-9.352883494545D+02 DE= 0.00D+00 F= -8.45D-03
     ILin= 2 X=3.000D-01 Y=-9.352902393569D+02 DE=-1.89D-03 F= -4.14D-03 OKLS=F
     ILin= 3 X=7.000D-01 Y=-9.352907429969D+02 DE=-2.39D-03 F=  1.63D-03
     Accept linear search using points  2 and  3.
     An  expanding polynomial of degree  3 produced  0.5095
 Iteration   5 EE= -935.290790982812     Delta-E=       -0.002441528344 Grad=3.399D-02 Max rot=    0.1851 deg.
 Gradient too large for Newton-Raphson -- use scaled steepest descent instead.
 Alpha Gap=     0.085 HL deriv= 9.57D-04
     ILin= 1 X=0.000D+00 Y=-9.352907909828D+02 DE= 0.00D+00 F= -2.22D-03
     ILin= 2 X=4.000D-01 Y=-9.352911386050D+02 DE=-3.48D-04 F=  4.81D-04 OKLS=T
     Accept linear search using points  1 and  2.
     An  expanding polynomial of degree  2 produced  0.2155
 Iteration   6 EE= -935.291112526912     Delta-E=       -0.000321544100 Grad=2.045D-02 Max rot=    0.1001 deg.
 Gradient too large for Newton-Raphson -- use scaled steepest descent instead.
 Alpha Gap=     0.085 HL deriv= 3.02D-04
     ILin= 1 X=0.000D+00 Y=-9.352911125269D+02 DE= 0.00D+00 F= -5.19D-04
     ILin= 2 X=5.000D-01 Y=-9.352912954026D+02 DE=-1.83D-04 F= -2.13D-04 OKLS=F
     ILin= 3 X=1.000D+00 Y=-9.352913252401D+02 DE=-2.13D-04 F=  9.33D-05
     Accept linear search using points  2 and  3.
     An  expanding polynomial of degree  3 produced  0.7759
 Iteration   7 EE= -935.291330789077     Delta-E=       -0.000218262165 Grad=4.500D-03 Max rot=    0.0212 deg.
 QCNR:  CnvC1=1.29D-08 CnvC2=1.29D-07
 LinEq1:  Iter=  0 NonCon=     1 RMS=6.79D-05 Max=3.12D-03 NDo=     1
 AX will form     1 AO Fock derivatives at one time.
 LinEq1:  Iter=  1 NonCon=     1 RMS=8.61D-05 Max=2.09D-03 NDo=     1
 LinEq1:  Iter=  2 NonCon=     1 RMS=4.13D-05 Max=1.48D-03 NDo=     1
 LinEq1:  Iter=  3 NonCon=     1 RMS=2.69D-05 Max=7.04D-04 NDo=     1
 LinEq1:  Iter=  4 NonCon=     1 RMS=2.71D-05 Max=1.06D-03 NDo=     1
 LinEq1:  Iter=  5 NonCon=     1 RMS=2.80D-05 Max=8.67D-04 NDo=     1
 LinEq1:  Iter=  6 NonCon=     1 RMS=2.07D-05 Max=6.22D-04 NDo=     1
 LinEq1:  Iter=  7 NonCon=     1 RMS=1.19D-05 Max=2.31D-04 NDo=     1
 LinEq1:  Iter=  8 NonCon=     1 RMS=9.05D-06 Max=1.86D-04 NDo=     1
 LinEq1:  Iter=  9 NonCon=     1 RMS=6.14D-06 Max=1.60D-04 NDo=     1
 LinEq1:  Iter= 10 NonCon=     1 RMS=5.53D-06 Max=1.36D-04 NDo=     1
 LinEq1:  Iter= 11 NonCon=     1 RMS=4.43D-06 Max=1.51D-04 NDo=     1
 LinEq1:  Iter= 12 NonCon=     1 RMS=3.69D-06 Max=1.15D-04 NDo=     1
 LinEq1:  Iter= 13 NonCon=     1 RMS=3.06D-06 Max=7.07D-05 NDo=     1
 LinEq1:  Iter= 14 NonCon=     1 RMS=1.86D-06 Max=3.40D-05 NDo=     1
 LinEq1:  Iter= 15 NonCon=     1 RMS=1.35D-06 Max=5.17D-05 NDo=     1
 LinEq1:  Iter= 16 NonCon=     1 RMS=1.11D-06 Max=1.99D-05 NDo=     1
 LinEq1:  Iter= 17 NonCon=     1 RMS=5.42D-07 Max=1.62D-05 NDo=     1
 LinEq1:  Iter= 18 NonCon=     1 RMS=4.62D-07 Max=1.10D-05 NDo=     1
 LinEq1:  Iter= 19 NonCon=     1 RMS=5.16D-07 Max=1.43D-05 NDo=     1
 LinEq1:  Iter= 20 NonCon=     1 RMS=1.55D-07 Max=2.73D-06 NDo=     1
 LinEq1:  Iter= 21 NonCon=     1 RMS=9.05D-08 Max=1.63D-06 NDo=     1
 LinEq1:  Iter= 22 NonCon=     1 RMS=3.43D-08 Max=6.50D-07 NDo=     1
 LinEq1:  Iter= 23 NonCon=     1 RMS=2.42D-08 Max=4.35D-07 NDo=     1
 LinEq1:  Iter= 24 NonCon=     0 RMS=7.79D-09 Max=1.08D-07 NDo=     1
 Linear equations converged to 1.293D-08 1.293D-07 after    24 iterations.
 Angle between quadratic step and gradient=  53.39 degrees.
     ILin= 1 X=0.000D+00 Y=-9.352913307891D+02 DE= 0.00D+00 F= -2.13D-05
     ILin= 2 X=1.000D+00 Y=-9.352913414298D+02 DE=-1.06D-05 F=  1.84D-08 OKLS=T
     Accept linear search using points  1 and  2.
     An  expanding polynomial of degree  2 produced  0.9991
     Minimum is close to point  2 DX= -8.63D-04 DF= -7.96D-12 DXR=  8.64D-04 DFR=  7.48D-07 which will be used.
 Iteration   8 EE= -935.291341429791     Delta-E=       -0.000010640714 Grad=3.892D-06 Max rot=    0.0001 deg.
 QCNR:  CnvC1=3.89D-11 CnvC2=3.89D-10
 LinEq1:  Iter=  0 NonCon=     1 RMS=9.72D-08 Max=3.88D-06 NDo=     1
 LinEq1:  Iter=  1 NonCon=     1 RMS=1.40D-07 Max=4.36D-06 NDo=     1
 LinEq1:  Iter=  2 NonCon=     1 RMS=7.77D-08 Max=2.54D-06 NDo=     1
 LinEq1:  Iter=  3 NonCon=     1 RMS=4.12D-08 Max=1.61D-06 NDo=     1
 LinEq1:  Iter=  4 NonCon=     1 RMS=4.55D-08 Max=1.80D-06 NDo=     1
 LinEq1:  Iter=  5 NonCon=     1 RMS=3.16D-08 Max=7.32D-07 NDo=     1
 LinEq1:  Iter=  6 NonCon=     1 RMS=2.89D-08 Max=5.75D-07 NDo=     1
 LinEq1:  Iter=  7 NonCon=     1 RMS=2.65D-08 Max=7.23D-07 NDo=     1
 LinEq1:  Iter=  8 NonCon=     1 RMS=2.34D-08 Max=6.41D-07 NDo=     1
 LinEq1:  Iter=  9 NonCon=     1 RMS=1.87D-08 Max=4.79D-07 NDo=     1
 LinEq1:  Iter= 10 NonCon=     1 RMS=1.28D-08 Max=3.45D-07 NDo=     1
 LinEq1:  Iter= 11 NonCon=     1 RMS=9.73D-09 Max=2.84D-07 NDo=     1
 LinEq1:  Iter= 12 NonCon=     1 RMS=5.14D-09 Max=1.20D-07 NDo=     1
 LinEq1:  Iter= 13 NonCon=     1 RMS=5.86D-09 Max=1.80D-07 NDo=     1
 LinEq1:  Iter= 14 NonCon=     1 RMS=4.50D-09 Max=1.60D-07 NDo=     1
 LinEq1:  Iter= 15 NonCon=     1 RMS=3.02D-09 Max=5.20D-08 NDo=     1
 LinEq1:  Iter= 16 NonCon=     1 RMS=1.72D-09 Max=3.50D-08 NDo=     1
 LinEq1:  Iter= 17 NonCon=     1 RMS=1.18D-09 Max=2.43D-08 NDo=     1
 LinEq1:  Iter= 18 NonCon=     1 RMS=6.19D-10 Max=1.08D-08 NDo=     1
 LinEq1:  Iter= 19 NonCon=     1 RMS=3.03D-10 Max=6.43D-09 NDo=     1
 LinEq1:  Iter= 20 NonCon=     1 RMS=1.77D-10 Max=3.13D-09 NDo=     1
 LinEq1:  Iter= 21 NonCon=     1 RMS=1.51D-10 Max=6.10D-09 NDo=     1
 LinEq1:  Iter= 22 NonCon=     1 RMS=7.63D-11 Max=1.61D-09 NDo=     1
 LinEq1:  Iter= 23 NonCon=     1 RMS=6.58D-11 Max=1.06D-09 NDo=     1
 LinEq1:  Iter= 24 NonCon=     1 RMS=1.96D-11 Max=6.96D-10 NDo=     1
 LinEq1:  Iter= 25 NonCon=     1 RMS=1.76D-11 Max=4.82D-10 NDo=     1
 LinEq1:  Iter= 26 NonCon=     0 RMS=5.82D-12 Max=1.68D-10 NDo=     1
 Linear equations converged to 3.892D-11 3.892D-10 after    26 iterations.
 Angle between quadratic step and gradient=  45.06 degrees.
     ILin= 1 X=0.000D+00 Y=-9.352913414298D+02 DE= 0.00D+00 F= -4.48D-11
     ILin= 2 X=1.000D+00 Y=-9.352913414298D+02 DE=-2.00D-11
 Iteration   9 EE= -935.291341429811     Delta-E=       -0.000000000020 Grad=3.945D-11 Max rot=    0.0000 deg.
 Rotation gradient small -- convergence achieved.
 SCF Done:  E(RB-LYP) =  -935.291341430     a.u. after    9 cycles
            Convg  =    0.3945D-10                    69 Fock formations.
              S**2 =  0.0000                  -V/T =  2.0063
 Leave Link  508 at Sun Oct 29 08:23:40 2023, MaxMem=   805306368 cpu:             149.1 elap:             149.1
 (Enter /opt/gaussian/g16/l601.exe)
 Copying SCF densities to generalized density rwf, IOpCl= 0 IROHF=0.

 **********************************************************************

            Population analysis using the SCF Density.

 **********************************************************************

 Orbital symmetries:
       Occupied  (A) (A) (A) (A) (A) (A) (A) (A) (A) (A) (A) (A)
                 (A) (A) (A) (A) (A) (A) (A) (A) (A) (A) (A) (A)
                 (A) (A) (A) (A) (A) (A) (A) (A) (A) (A) (A) (A)
                 (A) (A) (A) (A) (A) (A) (A) (A) (A) (A) (A) (A)
                 (A) (A) (A) (A) (A) (A) (A) (A) (A) (A) (A) (A)
                 (A) (A) (A) (A) (A) (A) (A) (A)
       Virtual   (A) (A) (A) (A) (A) (A) (A) (A) (A) (A) (A) (A)
                 (A) (A) (A) (A) (A) (A) (A) (A) (A) (A) (A) (A)
                 (A) (A) (A) (A) (A) (A) (A) (A) (A) (A) (A) (A)
                 (A) (A) (A) (A) (A) (A) (A) (A) (A) (A) (A) (A)
                 (A) (A) (A) (A) (A) (A) (A) (A) (A) (A) (A) (A)
                 (A) (A) (A) (A) (A) (A) (A) (A) (A) (A) (A) (A)
                 (A) (A) (A) (A) (A) (A) (A) (A) (A) (A) (A) (A)
                 (A) (A) (A) (A) (A) (A) (A) (A) (A) (A) (A) (A)
                 (A) (A) (A) (A) (A) (A) (A) (A) (A) (A) (A) (A)
                 (A) (A) (A) (A) (A) (A) (A) (A) (A) (A) (A) (A)
                 (A) (A) (A)
 The electronic state is 1-A.
 Alpha  occ. eigenvalues --  -18.76501 -18.74018 -14.09467 -14.06157 -14.04610
 Alpha  occ. eigenvalues --  -14.03934 -14.02276 -14.01919 -13.99083 -13.99031
 Alpha  occ. eigenvalues --  -10.05246 -10.02554 -10.01970 -10.00498 -10.00170
 Alpha  occ. eigenvalues --   -9.97204  -9.96244  -9.94887  -9.91861  -0.95745
 Alpha  occ. eigenvalues --   -0.92003  -0.90134  -0.89153  -0.87762  -0.86397
 Alpha  occ. eigenvalues --   -0.79912  -0.79455  -0.78705  -0.76689  -0.71775
 Alpha  occ. eigenvalues --   -0.65584  -0.60702  -0.59514  -0.57692  -0.55850
 Alpha  occ. eigenvalues --   -0.53251  -0.52107  -0.50925  -0.50102  -0.47988
 Alpha  occ. eigenvalues --   -0.45529  -0.45252  -0.43915  -0.42527  -0.40647
 Alpha  occ. eigenvalues --   -0.40324  -0.40180  -0.39405  -0.38105  -0.37613
 Alpha  occ. eigenvalues --   -0.35637  -0.34915  -0.33525  -0.33141  -0.32434
 Alpha  occ. eigenvalues --   -0.30676  -0.30263  -0.23484  -0.23203  -0.21536
 Alpha  occ. eigenvalues --   -0.21376  -0.20660  -0.20620  -0.20087  -0.19160
 Alpha  occ. eigenvalues --   -0.18278  -0.17194  -0.14022
 Alpha virt. eigenvalues --   -0.05992  -0.01651  -0.00113   0.00887   0.04086
 Alpha virt. eigenvalues --    0.04719   0.07574   0.08603   0.08882   0.09250
 Alpha virt. eigenvalues --    0.10404   0.12935   0.13347   0.14800   0.14827
 Alpha virt. eigenvalues --    0.16507   0.17873   0.18510   0.18961   0.20435
 Alpha virt. eigenvalues --    0.22001   0.23225   0.25446   0.26265   0.28289
 Alpha virt. eigenvalues --    0.29596   0.31234   0.33905   0.34448   0.36779
 Alpha virt. eigenvalues --    0.37617   0.39223   0.41613   0.43953   0.47130
 Alpha virt. eigenvalues --    0.51209   0.53366   0.60245   0.60654   0.63527
 Alpha virt. eigenvalues --    0.64164   0.65152   0.67611   0.68729   0.69161
 Alpha virt. eigenvalues --    0.69226   0.69921   0.70166   0.71114   0.72423
 Alpha virt. eigenvalues --    0.72716   0.74458   0.74513   0.77369   0.77553
 Alpha virt. eigenvalues --    0.78250   0.79978   0.80292   0.82145   0.84234
 Alpha virt. eigenvalues --    0.85640   0.86034   0.87696   0.91152   0.92706
 Alpha virt. eigenvalues --    0.98562   0.99433   1.03194   1.04290   1.04886
 Alpha virt. eigenvalues --    1.06537   1.07581   1.08034   1.08197   1.09639
 Alpha virt. eigenvalues --    1.10370   1.13260   1.15404   1.16618   1.18284
 Alpha virt. eigenvalues --    1.18306   1.21031   1.22046   1.23631   1.26060
 Alpha virt. eigenvalues --    1.26400   1.28166   1.33362   1.33556   1.35058
 Alpha virt. eigenvalues --    1.36021   1.43471   1.45767   1.48145   1.48263
 Alpha virt. eigenvalues --    1.51474   1.51482   1.53418   1.55817   1.59148
 Alpha virt. eigenvalues --    1.61062   1.62767   1.63479   1.65513   1.67458
 Alpha virt. eigenvalues --    1.74251   1.76193   1.79564   1.89455   1.96366
 Alpha virt. eigenvalues --    1.98287   2.02697   2.12317   2.50796   2.56518
 Alpha virt. eigenvalues --    2.60599   2.71904   2.78212   2.85187   2.87900
 Alpha virt. eigenvalues --    3.11883   3.28210   3.44555
          Condensed to atoms (all electrons):
               1          2          3          4          5          6
     1  C    4.956333   0.465257  -0.139345  -0.130611   0.242386  -0.013171
     2  N    0.465257   6.922041   0.316682  -0.060498  -0.077684   0.002069
     3  C   -0.139345   0.316682   5.763110   0.109510  -0.083702   0.007816
     4  C   -0.130611  -0.060498   0.109510   5.134255   0.234304  -0.023182
     5  N    0.242386  -0.077684  -0.083702   0.234304   7.146471   0.308616
     6  H   -0.013171   0.002069   0.007816  -0.023182   0.308616   0.410128
     7  N    0.002191   0.002046  -0.041774   0.363145  -0.038194   0.002597
     8  C    0.000001   0.000362  -0.005139  -0.108126   0.001306  -0.000043
     9  N   -0.000102   0.000893  -0.116853  -0.008132   0.000067   0.000009
    10  C    0.005327  -0.041396   0.145771  -0.071803   0.003160  -0.000008
    11  O   -0.000014  -0.000982  -0.080346   0.002512  -0.000003   0.000000
    12  N    0.000000   0.000000  -0.000012   0.000824  -0.000007  -0.000002
    13  H    0.375606  -0.033011   0.005093   0.001986  -0.045516   0.000681
    14  H    0.000001  -0.000006   0.003486  -0.000004   0.000001  -0.000000
    15  H    0.000000  -0.000000   0.000054   0.000137  -0.000005   0.000002
    16  H   -0.000000  -0.000000   0.000001  -0.000083   0.000000   0.000000
    17  C   -0.000000   0.000000  -0.000000   0.000000  -0.000000   0.000000
    18  C    0.000000   0.000000   0.000000  -0.000000   0.000000  -0.000000
    19  N   -0.000000   0.000000  -0.000000  -0.000000  -0.000000   0.000000
    20  C    0.000000   0.000000   0.000000   0.000000  -0.000000   0.000000
    21  O    0.000000   0.000000   0.000000   0.000000  -0.000000  -0.000000
    22  N   -0.000000   0.000000  -0.000008  -0.000000  -0.000000   0.000000
    23  C   -0.000000   0.000000  -0.000005   0.000000  -0.000000   0.000000
    24  N   -0.000000  -0.000000  -0.000039   0.000000  -0.000000   0.000000
    25  H    0.000000  -0.000000   0.000000  -0.000000   0.000000  -0.000000
    26  H    0.000000  -0.000000   0.000000   0.000000   0.000000  -0.000000
    27  H   -0.000000   0.000000  -0.000000   0.000000   0.000000   0.000000
    28  H    0.000000   0.000001   0.001619  -0.000030   0.000000  -0.000000
    29  H    0.000000  -0.000000   0.000001  -0.000000   0.000000  -0.000000
               7          8          9         10         11         12
     1  C    0.002191   0.000001  -0.000102   0.005327  -0.000014   0.000000
     2  N    0.002046   0.000362   0.000893  -0.041396  -0.000982   0.000000
     3  C   -0.041774  -0.005139  -0.116853   0.145771  -0.080346  -0.000012
     4  C    0.363145  -0.108126  -0.008132  -0.071803   0.002512   0.000824
     5  N   -0.038194   0.001306   0.000067   0.003160  -0.000003  -0.000007
     6  H    0.002597  -0.000043   0.000009  -0.000008   0.000000  -0.000002
     7  N    6.985907   0.465734  -0.059834  -0.013805  -0.000002  -0.060322
     8  C    0.465734   4.423250   0.226336  -0.042542   0.000931   0.318333
     9  N   -0.059834   0.226336   7.486525   0.152491  -0.062509  -0.063469
    10  C   -0.013805  -0.042542   0.152491   4.798077   0.496686   0.000573
    11  O   -0.000002   0.000931  -0.062509   0.496686   8.054432  -0.000002
    12  N   -0.060322   0.318333  -0.063469   0.000573  -0.000002   7.005368
    13  H   -0.000013   0.000002   0.000000  -0.000051  -0.000000  -0.000000
    14  H    0.001072  -0.014971   0.223880  -0.017341  -0.000640  -0.001462
    15  H    0.004813  -0.028371   0.003581  -0.000023   0.000000   0.313179
    16  H    0.001443  -0.021657  -0.001812  -0.000061  -0.000001   0.246998
    17  C   -0.000000  -0.000000  -0.000017  -0.000002  -0.000003   0.000000
    18  C    0.000000   0.000000   0.000000   0.000000   0.000000   0.000000
    19  N   -0.000000  -0.000000  -0.000002  -0.000000  -0.000000  -0.000003
    20  C   -0.000001  -0.000039  -0.000183   0.000017   0.000001  -0.000620
    21  O   -0.000000  -0.000186   0.000055   0.000001   0.000000  -0.012120
    22  N   -0.000001  -0.000154  -0.020616  -0.000118  -0.000061   0.000172
    23  C   -0.000000   0.000002  -0.000493   0.000012  -0.000415   0.000002
    24  N   -0.000000  -0.000000   0.000406  -0.000669  -0.019694  -0.000000
    25  H    0.000000   0.000000   0.000000   0.000000   0.000000   0.000000
    26  H    0.000000   0.000000   0.000000   0.000000   0.000000   0.000000
    27  H   -0.000000  -0.000000  -0.000000  -0.000000  -0.000000  -0.000000
    28  H    0.000001   0.000026  -0.003040   0.001016   0.108399  -0.000000
    29  H    0.000000   0.000000  -0.000005   0.000022   0.000286  -0.000000
              13         14         15         16         17         18
     1  C    0.375606   0.000001   0.000000  -0.000000  -0.000000   0.000000
     2  N   -0.033011  -0.000006  -0.000000  -0.000000   0.000000   0.000000
     3  C    0.005093   0.003486   0.000054   0.000001  -0.000000   0.000000
     4  C    0.001986  -0.000004   0.000137  -0.000083   0.000000  -0.000000
     5  N   -0.045516   0.000001  -0.000005   0.000000  -0.000000   0.000000
     6  H    0.000681  -0.000000   0.000002   0.000000   0.000000  -0.000000
     7  N   -0.000013   0.001072   0.004813   0.001443  -0.000000   0.000000
     8  C    0.000002  -0.014971  -0.028371  -0.021657  -0.000000   0.000000
     9  N    0.000000   0.223880   0.003581  -0.001812  -0.000017   0.000000
    10  C   -0.000051  -0.017341  -0.000023  -0.000061  -0.000002   0.000000
    11  O   -0.000000  -0.000640   0.000000  -0.000001  -0.000003   0.000000
    12  N   -0.000000  -0.001462   0.313179   0.246998   0.000000   0.000000
    13  H    0.503091  -0.000000  -0.000000   0.000000   0.000000   0.000000
    14  H   -0.000000   0.363365  -0.000000   0.003487   0.000588  -0.000005
    15  H   -0.000000  -0.000000   0.422442  -0.014916   0.000000  -0.000000
    16  H    0.000000   0.003487  -0.014916   0.394578  -0.000002  -0.000009
    17  C    0.000000   0.000588   0.000000  -0.000002   5.350710   0.475125
    18  C    0.000000  -0.000005  -0.000000  -0.000009   0.475125   4.931492
    19  N    0.000000   0.000233   0.000000   0.000385  -0.051347   0.283652
    20  C   -0.000000  -0.001182   0.000014   0.002097  -0.014441  -0.047709
    21  O   -0.000000  -0.001277   0.000087   0.081044   0.000061   0.000935
    22  N    0.000000   0.101157  -0.000001  -0.002200  -0.050535  -0.010410
    23  C    0.000000  -0.000123  -0.000000   0.000015   0.261946  -0.082025
    24  N    0.000000  -0.002572  -0.000000   0.000000  -0.077671   0.003209
    25  H   -0.000000  -0.000007  -0.000000  -0.000014   0.003308  -0.026931
    26  H   -0.000000  -0.000005  -0.000000  -0.000000   0.374880  -0.038906
    27  H    0.000000   0.000000   0.000000   0.000000  -0.032851   0.371146
    28  H   -0.000000   0.004578   0.000000   0.000000   0.002191  -0.000052
    29  H   -0.000000   0.000033   0.000000   0.000000  -0.001004   0.000226
              19         20         21         22         23         24
     1  C   -0.000000   0.000000   0.000000  -0.000000  -0.000000  -0.000000
     2  N    0.000000   0.000000   0.000000   0.000000   0.000000  -0.000000
     3  C   -0.000000   0.000000   0.000000  -0.000008  -0.000005  -0.000039
     4  C   -0.000000   0.000000   0.000000  -0.000000   0.000000   0.000000
     5  N   -0.000000  -0.000000  -0.000000  -0.000000  -0.000000  -0.000000
     6  H    0.000000   0.000000  -0.000000   0.000000   0.000000   0.000000
     7  N   -0.000000  -0.000001  -0.000000  -0.000001  -0.000000  -0.000000
     8  C   -0.000000  -0.000039  -0.000186  -0.000154   0.000002  -0.000000
     9  N   -0.000002  -0.000183   0.000055  -0.020616  -0.000493   0.000406
    10  C   -0.000000   0.000017   0.000001  -0.000118   0.000012  -0.000669
    11  O   -0.000000   0.000001   0.000000  -0.000061  -0.000415  -0.019694
    12  N   -0.000003  -0.000620  -0.012120   0.000172   0.000002  -0.000000
    13  H    0.000000  -0.000000  -0.000000   0.000000   0.000000   0.000000
    14  H    0.000233  -0.001182  -0.001277   0.101157  -0.000123  -0.002572
    15  H    0.000000   0.000014   0.000087  -0.000001  -0.000000  -0.000000
    16  H    0.000385   0.002097   0.081044  -0.002200   0.000015   0.000000
    17  C   -0.051347  -0.014441   0.000061  -0.050535   0.261946  -0.077671
    18  C    0.283652  -0.047709   0.000935  -0.010410  -0.082025   0.003209
    19  N    7.226063   0.105188  -0.067602  -0.082269  -0.013087   0.000007
    20  C    0.105188   4.538417   0.492182   0.225071  -0.041076   0.001655
    21  O   -0.067602   0.492182   8.035119  -0.059920   0.000685  -0.000002
    22  N   -0.082269   0.225071  -0.059920   7.225439   0.360072  -0.063161
    23  C   -0.013087  -0.041076   0.000685   0.360072   4.674207   0.324107
    24  N    0.000007   0.001655  -0.000002  -0.063161   0.324107   7.039556
    25  H    0.300888  -0.011162   0.005796   0.003144   0.000070   0.000003
    26  H    0.002258   0.000464   0.000001   0.002116  -0.028579  -0.003095
    27  H   -0.037405   0.001145  -0.000024  -0.000102   0.003621  -0.000030
    28  H    0.000002  -0.000043  -0.000002  -0.001324  -0.019240   0.204415
    29  H    0.000007  -0.000084   0.000000   0.002690  -0.040006   0.324122
              25         26         27         28         29
     1  C    0.000000   0.000000  -0.000000   0.000000   0.000000
     2  N   -0.000000  -0.000000   0.000000   0.000001  -0.000000
     3  C    0.000000   0.000000  -0.000000   0.001619   0.000001
     4  C   -0.000000   0.000000   0.000000  -0.000030  -0.000000
     5  N    0.000000   0.000000   0.000000   0.000000   0.000000
     6  H   -0.000000  -0.000000   0.000000  -0.000000  -0.000000
     7  N    0.000000   0.000000  -0.000000   0.000001   0.000000
     8  C    0.000000   0.000000  -0.000000   0.000026   0.000000
     9  N    0.000000   0.000000  -0.000000  -0.003040  -0.000005
    10  C    0.000000   0.000000  -0.000000   0.001016   0.000022
    11  O    0.000000   0.000000  -0.000000   0.108399   0.000286
    12  N    0.000000   0.000000  -0.000000  -0.000000  -0.000000
    13  H   -0.000000  -0.000000   0.000000  -0.000000  -0.000000
    14  H   -0.000007  -0.000005   0.000000   0.004578   0.000033
    15  H   -0.000000  -0.000000   0.000000   0.000000   0.000000
    16  H   -0.000014  -0.000000   0.000000   0.000000   0.000000
    17  C    0.003308   0.374880  -0.032851   0.002191  -0.001004
    18  C   -0.026931  -0.038906   0.371146  -0.000052   0.000226
    19  N    0.300888   0.002258  -0.037405   0.000002   0.000007
    20  C   -0.011162   0.000464   0.001145  -0.000043  -0.000084
    21  O    0.005796   0.000001  -0.000024  -0.000002   0.000000
    22  N    0.003144   0.002116  -0.000102  -0.001324   0.002690
    23  C    0.000070  -0.028579   0.003621  -0.019240  -0.040006
    24  N    0.000003  -0.003095  -0.000030   0.204415   0.324122
    25  H    0.407532  -0.000043  -0.003753  -0.000000  -0.000000
    26  H   -0.000043   0.521222  -0.003482  -0.000037   0.002370
    27  H   -0.003753  -0.003482   0.485565   0.000000   0.000000
    28  H   -0.000000  -0.000037   0.000000   0.380823  -0.011906
    29  H   -0.000000   0.002370   0.000000  -0.011906   0.427131
 Mulliken charges:
               1
     1  C    0.236141
     2  N   -0.495775
     3  C    0.114080
     4  C    0.555795
     5  N   -0.691202
     6  H    0.304488
     7  N   -0.615004
     8  C    0.784944
     9  N   -0.757175
    10  C    0.584668
    11  O   -0.498577
    12  N   -0.747429
    13  H    0.192132
    14  H    0.337712
    15  H    0.299009
    16  H    0.310708
    17  C   -0.240938
    18  C    0.140261
    19  N   -0.666968
    20  C    0.750287
    21  O   -0.474833
    22  N   -0.628981
    23  C    0.600308
    24  N   -0.730548
    25  H    0.321171
    26  H    0.170835
    27  H    0.216170
    28  H    0.332603
    29  H    0.296117
 Sum of Mulliken charges =  -0.00000
 Mulliken charges with hydrogens summed into heavy atoms:
               1
     1  C    0.428273
     2  N   -0.495775
     3  C    0.114080
     4  C    0.555795
     5  N   -0.386714
     7  N   -0.615004
     8  C    0.784944
     9  N   -0.419462
    10  C    0.584668
    11  O   -0.498577
    12  N   -0.137712
    17  C   -0.070103
    18  C    0.356431
    19  N   -0.345797
    20  C    0.750287
    21  O   -0.474833
    22  N   -0.628981
    23  C    0.600308
    24  N   -0.101828
 Electronic spatial extent (au):  <R**2>=           6241.3418
 Charge=             -0.0000 electrons
 Dipole moment (field-independent basis, Debye):
    X=             -6.4002    Y=              1.4475    Z=              0.0000  Tot=              6.5619
 Quadrupole moment (field-independent basis, Debye-Ang):
   XX=            -56.8189   YY=           -104.9381   ZZ=           -111.5883
   XY=             16.7656   XZ=              0.0001   YZ=             -0.0000
 Traceless Quadrupole moment (field-independent basis, Debye-Ang):
   XX=             34.2962   YY=            -13.8230   ZZ=            -20.4732
   XY=             16.7656   XZ=              0.0001   YZ=             -0.0000
 Octapole moment (field-independent basis, Debye-Ang**2):
  XXX=            -82.5320  YYY=              9.1967  ZZZ=             -0.0001  XYY=            -55.4866
  XXY=             37.2927  XXZ=              0.0000  XZZ=             -1.8045  YZZ=              3.5515
  YYZ=              0.0004  XYZ=              0.0001
 Hexadecapole moment (field-independent basis, Debye-Ang**3):
 XXXX=          -4341.2293 YYYY=          -1324.9282 ZZZZ=            -96.9515 XXXY=             83.6975
 XXXZ=              0.0033 YYYX=            172.5683 YYYZ=             -0.0004 ZZZX=             -0.0016
 ZZZY=             -0.0004 XXYY=          -1267.8369 XXZZ=          -1191.8681 YYZZ=           -277.9651
 XXYZ=             -0.0010 YYXZ=             -0.0003 ZZXY=            -15.8565
 N-N= 1.368252243288D+03 E-N=-4.920758292817D+03  KE= 9.294247603017D+02
 No NMR shielding tensors so no spin-rotation constants.
 Leave Link  601 at Sun Oct 29 08:23:40 2023, MaxMem=   805306368 cpu:               0.0 elap:               0.1
 (Enter /opt/gaussian/g16/l701.exe)
 ... and contract with generalized density number  0.
 Compute integral first derivatives.
 R6Disp: Adding Grimme-D3 dispersion energy 1st derivatives to the gradient.
 Leave Link  701 at Sun Oct 29 08:23:40 2023, MaxMem=   805306368 cpu:               0.1 elap:               0.1
 (Enter /opt/gaussian/g16/l702.exe)
 L702 exits ... SP integral derivatives will be done elsewhere.
 Leave Link  702 at Sun Oct 29 08:23:40 2023, MaxMem=   805306368 cpu:               0.0 elap:               0.0
 (Enter /opt/gaussian/g16/l703.exe)
 Integral derivatives from FoFJK, PRISM(SPDF).
 Compute integral first derivatives, UseDBF=F ICtDFT=           0.
 Calling FoFJK, ICntrl=      2527 FMM=F ISym2X=0 I1Cent= 0 IOpClX= 0 NMat=1 NMatS=1 NMatT=0.
 FoFJK:  IHMeth= 1 ICntrl=    2527 DoSepK=F KAlg= 0 I1Cent=           0 FoldK=F
 IRaf=         0 NMat=       1 IRICut=       1 DoRegI=T DoRafI=F ISym2E= 0 IDoP0=0 IntGTp=1.
 FoFCou: FMM=F IPFlag=           0 FMFlag=      100000 FMFlg1=         800
         NFxFlg=           0 DoJE=F BraDBF=F KetDBF=F FulRan=T
         wScrn=  0.000000 ICntrl=      2527 IOpCl=  0 I1Cent=           0 NGrid=           0
         NMat0=    1 NMatS0=      1 NMatT0=    0 NMatD0=    1 NMtDS0=    0 NMtDT0=    0
 Symmetry not used in FoFCou.
 Leave Link  703 at Sun Oct 29 08:23:46 2023, MaxMem=   805306368 cpu:               5.2 elap:               5.3
 (Enter /opt/gaussian/g16/l716.exe)
 Dipole        =-2.51804040D+00 5.69498409D-01 1.03872661D-05
 ***** Axes restored to original set *****
 -------------------------------------------------------------------
 Center     Atomic                   Forces (Hartrees/Bohr)
 Number     Number              X              Y              Z
 -------------------------------------------------------------------
      1        6           0.000064481    0.000163635   -0.000000050
      2        7          -0.000360235    0.000134449    0.000000089
      3        6           0.000584513    0.001074451   -0.000000049
      4        6           0.000586942   -0.001087591    0.000000065
      5        7          -0.000112308    0.000036707   -0.000000045
      6        1           0.000048967    0.000003395    0.000000054
      7        7          -0.001733180    0.000448888   -0.000000032
      8        6           0.000524075   -0.000461507    0.000000047
      9        7          -0.006081746    0.000800137    0.000000085
     10        6          -0.001711041   -0.004983690   -0.000000380
     11        8          -0.003355610    0.001737048    0.000000352
     12        7          -0.003882045    0.000333914    0.000000045
     13        1          -0.000014957    0.000005710   -0.000000017
     14        1           0.002560500   -0.000005417    0.000000112
     15        1          -0.000518804    0.000096502   -0.000000023
     16        1           0.001205085   -0.000080367   -0.000000082
     17        6           0.000521493   -0.000971106    0.000000367
     18        6           0.000089446    0.000695664   -0.000000213
     19        7          -0.000845731   -0.000785664    0.000000124
     20        6           0.001629226    0.002108773   -0.000000233
     21        8           0.002490076   -0.000431697    0.000000130
     22        7           0.003867004   -0.001851081   -0.000000015
     23        6           0.000052219    0.004498767   -0.000000206
     24        7           0.007652724   -0.001128350   -0.000000210
     25        1          -0.000029352   -0.000013314    0.000000040
     26        1          -0.000151268   -0.000025757   -0.000000056
     27        1          -0.000003807   -0.000082507    0.000000019
     28        1          -0.003941122   -0.000249921    0.000000060
     29        1           0.000864456    0.000019928    0.000000023
 -------------------------------------------------------------------
 Cartesian Forces:  Max     0.007652724 RMS     0.001665809
 Leave Link  716 at Sun Oct 29 08:23:46 2023, MaxMem=   805306368 cpu:               0.0 elap:               0.0
 (Enter /opt/gaussian/g16/l103.exe)

 GradGradGradGradGradGradGradGradGradGradGradGradGradGradGradGradGradGrad
 Berny optimization.
 FormGI is forming the generalized inverse of G from B-inverse, IUseBI=4.
 Internal  Forces:  Max     0.008423257 RMS     0.001162421
 Search for a local minimum.
 Step number   1 out of a maximum of  100
 All quantities printed in internal units (Hartrees-Bohrs-Radians)
 RMS Force = .10286D-02 SwitMx=.10000D-02 MixMth= 1
 Mixed Optimization -- RFO/linear search
 Second derivative matrix not updated -- first step.
 ITU=  0
     Eigenvalues ---    0.00259   0.00896   0.01026   0.01237   0.01307
     Eigenvalues ---    0.01391   0.01484   0.01522   0.01566   0.01608
     Eigenvalues ---    0.01655   0.01680   0.01703   0.01732   0.01797
     Eigenvalues ---    0.01821   0.01838   0.01888   0.01953   0.01960
     Eigenvalues ---    0.02025   0.02054   0.02079   0.02230   0.02269
     Eigenvalues ---    0.02419   0.05859   0.06213   0.08017   0.16000
     Eigenvalues ---    0.16000   0.16000   0.16000   0.16000   0.16000
     Eigenvalues ---    0.16000   0.16000   0.19637   0.21186   0.22121
     Eigenvalues ---    0.22706   0.22919   0.23184   0.23480   0.23838
     Eigenvalues ---    0.24747   0.25000   0.25000   0.31451   0.34861
     Eigenvalues ---    0.35136   0.35534   0.35840   0.36078   0.36620
     Eigenvalues ---    0.38370   0.38455   0.39322   0.39900   0.40661
     Eigenvalues ---    0.42262   0.42898   0.43673   0.43887   0.44087
     Eigenvalues ---    0.44113   0.44228   0.44952   0.47714   0.49588
     Eigenvalues ---    0.50460   0.50650   0.51940   0.52023   0.54756
     Eigenvalues ---    0.55399   0.71856   0.755781000.000001000.00000
     Eigenvalues --- 1000.000001000.000001000.000001000.000001000.00000
     Eigenvalues --- 1000.000001000.000001000.000001000.000001000.00000
     Eigenvalues --- 1000.000001000.000001000.000001000.000001000.00000
     Eigenvalues --- 1000.000001000.000001000.000001000.000001000.00000
     Eigenvalues --- 1000.000001000.000001000.000001000.000001000.00000
     Eigenvalues --- 1000.000001000.000001000.000001000.000001000.00000
     Eigenvalues --- 1000.000001000.000001000.000001000.000001000.00000
     Eigenvalues --- 1000.000001000.000001000.000001000.000001000.00000
     Eigenvalues --- 1000.000001000.000001000.000001000.000001000.00000
     Eigenvalues --- 1000.000001000.000001000.000001000.000001000.00000
     Eigenvalues --- 1000.000001000.000001000.000001000.000001000.00000
     Eigenvalues --- 1000.000001000.000001000.000001000.000001000.00000
     Eigenvalues --- 1000.000001000.000001000.000001000.000001000.00000
     Eigenvalues --- 1000.000001000.000001000.000001000.000001000.00000
     Eigenvalues --- 1000.000001000.000001000.000001000.000001000.00000
     Eigenvalues --- 1000.000001000.000001000.000001000.000001000.00000
     Eigenvalues --- 1000.000001000.000001000.000001000.00000
 RFO step:  Lambda=-4.53905310D-04 EMin= 2.58884956D-03
 Linear search not attempted -- first point.
 Iteration  1 RMS(Cart)=  0.00480081 RMS(Int)=  0.00000659
 Iteration  2 RMS(Cart)=  0.00000917 RMS(Int)=  0.00000129
 Iteration  3 RMS(Cart)=  0.00000000 RMS(Int)=  0.00000129
 Iteration  1 RMS(Cart)=  0.00000017 RMS(Int)=  0.00000008
 ITry= 1 IFail=0 DXMaxC= 2.19D-02 DCOld= 1.00D+10 DXMaxT= 3.00D-01 DXLimC= 3.00D+00 Rises=F
 Variable       Old X    -DE/DX   Delta X   Delta X   Delta X     New X
                                 (Linear)    (Quad)   (Total)
    R1        2.52796   0.00009   0.00000   0.00017   0.00017   2.52812
    R2        2.68342  -0.00016   0.00000  -0.00036  -0.00036   2.68306
    R3        2.04817  -0.00002   0.00000  -0.00005  -0.00005   2.04812
    R4        2.68266  -0.00030   0.00000  -0.00070  -0.00070   2.68196
    R5        2.68144  -0.00019   0.00000  -0.00038  -0.00038   2.68106
    R6        2.71126   0.00058   0.00000   0.00155   0.00155   2.71280
    R7        2.63819  -0.00013   0.00000  -0.00028  -0.00028   2.63792
    R8        2.57706   0.00075   0.00000   0.00145   0.00145   2.57851
    R9        1.93019   0.00003   0.00000   0.00008   0.00008   1.93027
   R10        2.56870  -0.00138   0.00000  -0.00267  -0.00267   2.56603
   R11        2.64082  -0.00000   0.00000  -0.00014  -0.00014   2.64068
   R12        2.57226   0.00057   0.00000   0.00115   0.00115   2.57341
   R13        2.70442   0.00134   0.00000   0.00337   0.00337   2.70780
   R14        2.01067  -0.00691   0.00000  -0.01805  -0.01806   1.99262
   R15        2.41612  -0.00255   0.00000  -0.00354  -0.00353   2.41259
   R16        3.27264  -0.00448   0.00000   0.00000   0.00000   3.27264
   R17        1.92883  -0.00013   0.00000  -0.00029  -0.00029   1.92854
   R18        1.97124  -0.00466   0.00000  -0.01127  -0.01127   1.95997
   R19        3.51819  -0.00436   0.00000   0.00000  -0.00000   3.51819
   R20        3.57635  -0.00348   0.00000   0.00000   0.00000   3.57635
   R21        2.58660   0.00010   0.00000   0.00021   0.00021   2.58680
   R22        2.75248  -0.00031   0.00000  -0.00098  -0.00098   2.75150
   R23        2.05454   0.00009   0.00000   0.00025   0.00025   2.05479
   R24        2.60900  -0.00045   0.00000  -0.00078  -0.00078   2.60822
   R25        2.05901   0.00001   0.00000   0.00002   0.00002   2.05903
   R26        2.72972   0.00086   0.00000   0.00235   0.00235   2.73207
   R27        1.93548   0.00000   0.00000   0.00001   0.00001   1.93549
   R28        2.39497  -0.00128   0.00000  -0.00163  -0.00163   2.39334
   R29        2.60648   0.00072   0.00000   0.00138   0.00138   2.60786
   R30        2.58791  -0.00180   0.00000  -0.00356  -0.00357   2.58435
   R31        2.54428   0.00160   0.00000   0.00278   0.00278   2.54706
   R32        2.02935  -0.00842   0.00000  -0.02316  -0.02316   2.00620
   R33        1.93290  -0.00035   0.00000  -0.00079  -0.00079   1.93211
    A1        1.96097  -0.00004   0.00000  -0.00009  -0.00009   1.96088
    A2        2.19769   0.00002   0.00000   0.00005   0.00005   2.19774
    A3        2.12452   0.00002   0.00000   0.00004   0.00004   2.12457
    A4        1.82451   0.00005   0.00000   0.00028   0.00028   1.82478
    A5        1.93717  -0.00006   0.00000  -0.00037  -0.00037   1.93680
    A6        2.27528  -0.00026   0.00000  -0.00114  -0.00115   2.27414
    A7        2.07073   0.00032   0.00000   0.00151   0.00152   2.07225
    A8        1.83450   0.00014   0.00000   0.00052   0.00052   1.83502
    A9        2.24686   0.00005   0.00000   0.00026   0.00026   2.24712
   A10        2.20183  -0.00019   0.00000  -0.00078  -0.00078   2.20105
   A11        1.86763  -0.00009   0.00000  -0.00033  -0.00033   1.86730
   A12        2.23755   0.00001   0.00000  -0.00005  -0.00005   2.23750
   A13        2.17800   0.00008   0.00000   0.00038   0.00038   2.17838
   A14        1.96239   0.00015   0.00000   0.00022   0.00021   1.96260
   A15        2.15128  -0.00015   0.00000  -0.00109  -0.00109   2.15019
   A16        2.08338  -0.00037   0.00000  -0.00136  -0.00136   2.08203
   A17        2.04852   0.00052   0.00000   0.00244   0.00244   2.05096
   A18        2.18379   0.00077   0.00000   0.00331   0.00331   2.18710
   A19        2.08028  -0.00029   0.00000  -0.00131  -0.00132   2.07897
   A20        2.01911  -0.00048   0.00000  -0.00200  -0.00200   2.01712
   A21        1.95132  -0.00115   0.00000  -0.00421  -0.00421   1.94711
   A22        2.22918   0.00071   0.00000   0.00313   0.00313   2.23230
   A23        2.10269   0.00043   0.00000   0.00108   0.00108   2.10377
   A24        2.16193   0.00004   0.00000  -0.00245  -0.00244   2.15949
   A25        2.02806   0.00069   0.00000   0.00394   0.00394   2.03200
   A26        2.15308  -0.00039   0.00000  -0.00173  -0.00173   2.15135
   A27        2.10205  -0.00030   0.00000  -0.00221  -0.00221   2.09984
   A28        2.05723  -0.00029   0.00000  -0.00163  -0.00163   2.05560
   A29        2.11365   0.00001   0.00000   0.00000   0.00000   2.11366
   A30        2.11231   0.00027   0.00000   0.00163   0.00163   2.11393
   A31        2.10237  -0.00007   0.00000  -0.00009  -0.00009   2.10229
   A32        2.14084  -0.00005   0.00000  -0.00049  -0.00049   2.14036
   A33        2.03997   0.00012   0.00000   0.00057   0.00057   2.04054
   A34        2.13336   0.00012   0.00000   0.00102   0.00102   2.13438
   A35        2.12721  -0.00009   0.00000  -0.00070  -0.00070   2.12651
[...]
                 (A) (A) (A) (A) (A) (A) (A) (A) (A) (A) (A) (A)
                 (A) (A) (A) (A) (A) (A) (A) (A) (A) (A) (A) (A)
                 (A) (A) (A) (A) (A) (A) (A) (A) (A) (A) (A) (A)
                 (A) (A) (A) (A) (A) (A) (A) (A) (A) (A) (A) (A)
                 (A) (A) (A) (A) (A) (A) (A) (A) (A) (A) (A) (A)
                 (A) (A) (A) (A) (A) (A) (A) (A) (A) (A) (A) (A)
                 (A) (A) (A) (A) (A) (A) (A) (A) (A) (A) (A) (A)
                 (A) (A) (A) (A) (A) (A) (A) (A) (A) (A) (A) (A)
                 (A) (A) (A)
 The electronic state is 1-A.
 Alpha  occ. eigenvalues --  -18.76581 -18.74075 -14.09453 -14.06159 -14.04478
 Alpha  occ. eigenvalues --  -14.03816 -14.02277 -14.01844 -13.99045 -13.99018
 Alpha  occ. eigenvalues --  -10.05295 -10.02538 -10.01939 -10.00479 -10.00210
 Alpha  occ. eigenvalues --   -9.97199  -9.96238  -9.94853  -9.91863  -0.95820
 Alpha  occ. eigenvalues --   -0.92078  -0.90221  -0.89210  -0.87804  -0.86389
 Alpha  occ. eigenvalues --   -0.79952  -0.79445  -0.78701  -0.76692  -0.71759
 Alpha  occ. eigenvalues --   -0.65601  -0.60718  -0.59542  -0.57702  -0.55848
 Alpha  occ. eigenvalues --   -0.53259  -0.52087  -0.50966  -0.50112  -0.48001
 Alpha  occ. eigenvalues --   -0.45553  -0.45328  -0.44004  -0.42571  -0.40656
 Alpha  occ. eigenvalues --   -0.40340  -0.40185  -0.39417  -0.38094  -0.37625
 Alpha  occ. eigenvalues --   -0.35626  -0.34979  -0.33515  -0.33124  -0.32524
 Alpha  occ. eigenvalues --   -0.30716  -0.30316  -0.23483  -0.23185  -0.21598
 Alpha  occ. eigenvalues --   -0.21366  -0.20659  -0.20602  -0.20131  -0.19181
 Alpha  occ. eigenvalues --   -0.18328  -0.17190  -0.14033
 Alpha virt. eigenvalues --   -0.05969  -0.01686  -0.00112   0.00910   0.04104
 Alpha virt. eigenvalues --    0.04739   0.07639   0.08604   0.08883   0.09237
 Alpha virt. eigenvalues --    0.10437   0.12986   0.13365   0.14803   0.14986
 Alpha virt. eigenvalues --    0.16730   0.17953   0.18697   0.19163   0.20432
 Alpha virt. eigenvalues --    0.22174   0.23299   0.25499   0.26311   0.28283
 Alpha virt. eigenvalues --    0.29596   0.31259   0.34084   0.34482   0.36736
 Alpha virt. eigenvalues --    0.37656   0.39201   0.41618   0.44053   0.47114
 Alpha virt. eigenvalues --    0.51265   0.53385   0.60253   0.60654   0.63613
 Alpha virt. eigenvalues --    0.64183   0.65233   0.67629   0.68740   0.69232
 Alpha virt. eigenvalues --    0.69287   0.69904   0.70217   0.71126   0.72459
 Alpha virt. eigenvalues --    0.72787   0.74414   0.74575   0.77402   0.77554
 Alpha virt. eigenvalues --    0.78260   0.79990   0.80347   0.82282   0.84244
 Alpha virt. eigenvalues --    0.85634   0.86039   0.87714   0.91184   0.92775
 Alpha virt. eigenvalues --    0.98548   0.99452   1.03192   1.04288   1.04894
 Alpha virt. eigenvalues --    1.06613   1.07669   1.08050   1.08263   1.09717
 Alpha virt. eigenvalues --    1.10383   1.13282   1.15684   1.16613   1.18294
 Alpha virt. eigenvalues --    1.18497   1.21286   1.22328   1.23686   1.26064
 Alpha virt. eigenvalues --    1.26602   1.28467   1.33374   1.33650   1.35110
 Alpha virt. eigenvalues --    1.36065   1.43542   1.45841   1.48170   1.48230
 Alpha virt. eigenvalues --    1.51477   1.51505   1.53459   1.55787   1.59292
 Alpha virt. eigenvalues --    1.60865   1.62760   1.63473   1.65497   1.67443
 Alpha virt. eigenvalues --    1.74198   1.76074   1.79577   1.89329   1.96389
 Alpha virt. eigenvalues --    1.98335   2.02574   2.12361   2.51030   2.56691
 Alpha virt. eigenvalues --    2.60509   2.72035   2.78378   2.85162   2.87914
 Alpha virt. eigenvalues --    3.11889   3.28421   3.44985
          Condensed to atoms (all electrons):
               1          2          3          4          5          6
     1  C    4.956263   0.465344  -0.139377  -0.130588   0.242384  -0.013162
     2  N    0.465344   6.922668   0.316081  -0.060205  -0.077868   0.002074
     3  C   -0.139377   0.316081   5.763006   0.111527  -0.083795   0.007830
     4  C   -0.130588  -0.060205   0.111527   5.132176   0.234635  -0.023175
     5  N    0.242384  -0.077868  -0.083795   0.234635   7.146563   0.308608
     6  H   -0.013162   0.002074   0.007830  -0.023175   0.308608   0.410001
     7  N    0.002196   0.002044  -0.041664   0.363754  -0.038134   0.002609
     8  C    0.000001   0.000361  -0.005601  -0.108177   0.001301  -0.000042
     9  N   -0.000104   0.000895  -0.116999  -0.008084   0.000067   0.000009
    10  C    0.005297  -0.041454   0.144732  -0.071842   0.003135  -0.000008
    11  O   -0.000015  -0.000952  -0.080318   0.002488  -0.000003   0.000000
    12  N    0.000000   0.000000  -0.000021   0.000840  -0.000007  -0.000002
    13  H    0.375596  -0.032991   0.005090   0.001989  -0.045524   0.000678
    14  H    0.000001  -0.000006   0.003531   0.000011   0.000001  -0.000000
    15  H    0.000000  -0.000000   0.000053   0.000134  -0.000005   0.000002
    16  H   -0.000000  -0.000000   0.000002  -0.000085   0.000000   0.000000
    17  C   -0.000000   0.000000  -0.000000   0.000000  -0.000000   0.000000
    18  C    0.000000   0.000000   0.000000  -0.000000   0.000000  -0.000000
    19  N   -0.000000   0.000000  -0.000000  -0.000000  -0.000000   0.000000
    20  C    0.000000   0.000000   0.000000   0.000000  -0.000000   0.000000
    21  O    0.000000   0.000000   0.000000   0.000000  -0.000000  -0.000000
    22  N   -0.000000   0.000000  -0.000008  -0.000000  -0.000000   0.000000
    23  C   -0.000000   0.000000  -0.000005   0.000000  -0.000000   0.000000
    24  N   -0.000000  -0.000000  -0.000040   0.000000  -0.000000   0.000000
    25  H    0.000000  -0.000000   0.000000  -0.000000   0.000000  -0.000000
    26  H    0.000000  -0.000000   0.000000   0.000000   0.000000  -0.000000
    27  H   -0.000000   0.000000  -0.000000   0.000000   0.000000   0.000000
    28  H    0.000000   0.000001   0.001606  -0.000029   0.000000  -0.000000
    29  H    0.000000  -0.000000   0.000001  -0.000000   0.000000  -0.000000
               7          8          9         10         11         12
     1  C    0.002196   0.000001  -0.000104   0.005297  -0.000015   0.000000
     2  N    0.002044   0.000361   0.000895  -0.041454  -0.000952   0.000000
     3  C   -0.041664  -0.005601  -0.116999   0.144732  -0.080318  -0.000021
     4  C    0.363754  -0.108177  -0.008084  -0.071842   0.002488   0.000840
     5  N   -0.038134   0.001301   0.000067   0.003135  -0.000003  -0.000007
     6  H    0.002609  -0.000042   0.000009  -0.000008   0.000000  -0.000002
     7  N    6.986170   0.465650  -0.060272  -0.013889  -0.000002  -0.060498
     8  C    0.465650   4.420721   0.227099  -0.041338   0.000934   0.318721
     9  N   -0.060272   0.227099   7.485274   0.152679  -0.062697  -0.063506
    10  C   -0.013889  -0.041338   0.152679   4.797095   0.499277   0.000570
    11  O   -0.000002   0.000934  -0.062697   0.499277   8.052823  -0.000002
    12  N   -0.060498   0.318721  -0.063506   0.000570  -0.000002   7.004453
    13  H   -0.000013   0.000002   0.000000  -0.000051  -0.000000  -0.000000
    14  H    0.001097  -0.015271   0.225063  -0.017543  -0.000647  -0.001459
    15  H    0.004717  -0.027908   0.003557  -0.000021   0.000000   0.313401
    16  H    0.001467  -0.021755  -0.001810  -0.000061  -0.000001   0.247898
    17  C   -0.000000  -0.000000  -0.000018  -0.000002  -0.000003   0.000000
    18  C    0.000000   0.000000   0.000000   0.000000   0.000000   0.000000
    19  N   -0.000000  -0.000000  -0.000002  -0.000000  -0.000000  -0.000003
    20  C   -0.000001  -0.000039  -0.000166   0.000018   0.000001  -0.000627
    21  O   -0.000000  -0.000189   0.000058   0.000001   0.000000  -0.012293
    22  N   -0.000001  -0.000156  -0.021030  -0.000113  -0.000064   0.000178
    23  C   -0.000000   0.000003  -0.000515   0.000017  -0.000424   0.000002
    24  N   -0.000000  -0.000000   0.000419  -0.000655  -0.020316  -0.000000
    25  H    0.000000   0.000000   0.000000   0.000000   0.000000   0.000000
    26  H    0.000000   0.000000   0.000000   0.000000   0.000000   0.000000
    27  H   -0.000000  -0.000000  -0.000000  -0.000000  -0.000000  -0.000000
    28  H    0.000001   0.000025  -0.002997   0.000949   0.108111  -0.000000
    29  H    0.000000   0.000000  -0.000006   0.000022   0.000295  -0.000000
              13         14         15         16         17         18
     1  C    0.375596   0.000001   0.000000  -0.000000  -0.000000   0.000000
     2  N   -0.032991  -0.000006  -0.000000  -0.000000   0.000000   0.000000
     3  C    0.005090   0.003531   0.000053   0.000002  -0.000000   0.000000
     4  C    0.001989   0.000011   0.000134  -0.000085   0.000000  -0.000000
     5  N   -0.045524   0.000001  -0.000005   0.000000  -0.000000   0.000000
     6  H    0.000678  -0.000000   0.000002   0.000000   0.000000  -0.000000
     7  N   -0.000013   0.001097   0.004717   0.001467  -0.000000   0.000000
     8  C    0.000002  -0.015271  -0.027908  -0.021755  -0.000000   0.000000
     9  N    0.000000   0.225063   0.003557  -0.001810  -0.000018   0.000000
    10  C   -0.000051  -0.017543  -0.000021  -0.000061  -0.000002   0.000000
    11  O   -0.000000  -0.000647   0.000000  -0.000001  -0.000003   0.000000
    12  N   -0.000000  -0.001459   0.313401   0.247898   0.000000   0.000000
    13  H    0.503126  -0.000000  -0.000000   0.000000   0.000000   0.000000
    14  H   -0.000000   0.361440  -0.000000   0.003447   0.000596  -0.000006
    15  H   -0.000000  -0.000000   0.422203  -0.015156   0.000000  -0.000000
    16  H    0.000000   0.003447  -0.015156   0.394010  -0.000002  -0.000009
    17  C    0.000000   0.000596   0.000000  -0.000002   5.352506   0.475217
    18  C    0.000000  -0.000006  -0.000000  -0.000009   0.475217   4.930857
    19  N    0.000000   0.000229   0.000000   0.000387  -0.051375   0.283735
    20  C   -0.000000  -0.001240   0.000014   0.002119  -0.014756  -0.047310
    21  O   -0.000000  -0.001283   0.000088   0.080918   0.000063   0.000935
    22  N    0.000000   0.100862  -0.000001  -0.002203  -0.050970  -0.010303
    23  C    0.000000  -0.000070  -0.000000   0.000015   0.260790  -0.082538
    24  N    0.000000  -0.002572  -0.000000   0.000000  -0.078023   0.003208
    25  H   -0.000000  -0.000007  -0.000000  -0.000014   0.003314  -0.027023
    26  H   -0.000000  -0.000005  -0.000000  -0.000000   0.375082  -0.038840
    27  H    0.000000   0.000000   0.000000   0.000000  -0.032872   0.371125
    28  H   -0.000000   0.004533   0.000000   0.000000   0.002266  -0.000054
    29  H   -0.000000   0.000033   0.000000   0.000000  -0.000990   0.000224
              19         20         21         22         23         24
     1  C   -0.000000   0.000000   0.000000  -0.000000  -0.000000  -0.000000
     2  N    0.000000   0.000000   0.000000   0.000000   0.000000  -0.000000
     3  C   -0.000000   0.000000   0.000000  -0.000008  -0.000005  -0.000040
     4  C   -0.000000   0.000000   0.000000  -0.000000   0.000000   0.000000
     5  N   -0.000000  -0.000000  -0.000000  -0.000000  -0.000000  -0.000000
     6  H    0.000000   0.000000  -0.000000   0.000000   0.000000   0.000000
     7  N   -0.000000  -0.000001  -0.000000  -0.000001  -0.000000  -0.000000
     8  C   -0.000000  -0.000039  -0.000189  -0.000156   0.000003  -0.000000
     9  N   -0.000002  -0.000166   0.000058  -0.021030  -0.000515   0.000419
    10  C   -0.000000   0.000018   0.000001  -0.000113   0.000017  -0.000655
    11  O   -0.000000   0.000001   0.000000  -0.000064  -0.000424  -0.020316
    12  N   -0.000003  -0.000627  -0.012293   0.000178   0.000002  -0.000000
    13  H    0.000000  -0.000000  -0.000000   0.000000   0.000000   0.000000
    14  H    0.000229  -0.001240  -0.001283   0.100862  -0.000070  -0.002572
    15  H    0.000000   0.000014   0.000088  -0.000001  -0.000000  -0.000000
    16  H    0.000387   0.002119   0.080918  -0.002203   0.000015   0.000000
    17  C   -0.051375  -0.014756   0.000063  -0.050970   0.260790  -0.078023
    18  C    0.283735  -0.047310   0.000935  -0.010303  -0.082538   0.003208
    19  N    7.224537   0.106109  -0.067521  -0.082123  -0.013163   0.000007
    20  C    0.106109   4.538271   0.492412   0.225447  -0.041392   0.001665
    21  O   -0.067521   0.492412   8.034110  -0.059623   0.000652  -0.000002
    22  N   -0.082123   0.225447  -0.059623   7.225339   0.361856  -0.063201
    23  C   -0.013163  -0.041392   0.000652   0.361856   4.673454   0.324498
    24  N    0.000007   0.001665  -0.000002  -0.063201   0.324498   7.037896
    25  H    0.300871  -0.011203   0.005797   0.003132   0.000074   0.000003
    26  H    0.002257   0.000463   0.000001   0.002109  -0.028353  -0.003103
    27  H   -0.037475   0.001137  -0.000024  -0.000104   0.003638  -0.000030
    28  H    0.000002  -0.000046  -0.000002  -0.001340  -0.019465   0.206577
    29  H    0.000007  -0.000083   0.000000   0.002659  -0.039032   0.324346
              25         26         27         28         29
     1  C    0.000000   0.000000  -0.000000   0.000000   0.000000
     2  N   -0.000000  -0.000000   0.000000   0.000001  -0.000000
     3  C    0.000000   0.000000  -0.000000   0.001606   0.000001
     4  C   -0.000000   0.000000   0.000000  -0.000029  -0.000000
     5  N    0.000000   0.000000   0.000000   0.000000   0.000000
     6  H   -0.000000  -0.000000   0.000000  -0.000000  -0.000000
     7  N    0.000000   0.000000  -0.000000   0.000001   0.000000
     8  C    0.000000   0.000000  -0.000000   0.000025   0.000000
     9  N    0.000000   0.000000  -0.000000  -0.002997  -0.000006
    10  C    0.000000   0.000000  -0.000000   0.000949   0.000022
    11  O    0.000000   0.000000  -0.000000   0.108111   0.000295
    12  N    0.000000   0.000000  -0.000000  -0.000000  -0.000000
    13  H   -0.000000  -0.000000   0.000000  -0.000000  -0.000000
    14  H   -0.000007  -0.000005   0.000000   0.004533   0.000033
    15  H   -0.000000  -0.000000   0.000000   0.000000   0.000000
    16  H   -0.000014  -0.000000   0.000000   0.000000   0.000000
    17  C    0.003314   0.375082  -0.032872   0.002266  -0.000990
    18  C   -0.027023  -0.038840   0.371125  -0.000054   0.000224
    19  N    0.300871   0.002257  -0.037475   0.000002   0.000007
    20  C   -0.011203   0.000463   0.001137  -0.000046  -0.000083
    21  O    0.005797   0.000001  -0.000024  -0.000002   0.000000
    22  N    0.003132   0.002109  -0.000104  -0.001340   0.002659
    23  C    0.000074  -0.028353   0.003638  -0.019465  -0.039032
    24  N    0.000003  -0.003103  -0.000030   0.206577   0.324346
    25  H    0.407951  -0.000043  -0.003793  -0.000000  -0.000000
    26  H   -0.000043   0.520827  -0.003475  -0.000037   0.002336
    27  H   -0.003793  -0.003475   0.485866   0.000000   0.000000
    28  H   -0.000000  -0.000037   0.000000   0.377871  -0.012245
    29  H   -0.000000   0.002336   0.000000  -0.012245   0.426041
 Mulliken charges:
               1
     1  C    0.236163
     2  N   -0.495991
     3  C    0.114371
     4  C    0.554630
     5  N   -0.691359
     6  H    0.304577
     7  N   -0.615229
     8  C    0.785659
     9  N   -0.756917
    10  C    0.583184
    11  O   -0.498487
    12  N   -0.747647
    13  H    0.192097
    14  H    0.339263
    15  H    0.298922
    16  H    0.310833
    17  C   -0.240821
    18  C    0.140781
    19  N   -0.666478
    20  C    0.749206
    21  O   -0.474097
    22  N   -0.630341
    23  C    0.599959
    24  N   -0.730675
    25  H    0.320942
    26  H    0.170781
    27  H    0.216008
    28  H    0.334275
    29  H    0.296393
 Sum of Mulliken charges =  -0.00000
 Mulliken charges with hydrogens summed into heavy atoms:
               1
     1  C    0.428260
     2  N   -0.495991
     3  C    0.114371
     4  C    0.554630
     5  N   -0.386782
     7  N   -0.615229
     8  C    0.785659
     9  N   -0.417654
    10  C    0.583184
    11  O   -0.498487
    12  N   -0.137892
    17  C   -0.070040
    18  C    0.356789
    19  N   -0.345537
    20  C    0.749206
    21  O   -0.474097
    22  N   -0.630341
    23  C    0.599959
    24  N   -0.100008
 Electronic spatial extent (au):  <R**2>=           6226.8919
 Charge=             -0.0000 electrons
 Dipole moment (field-independent basis, Debye):
    X=             -6.3865    Y=              1.4361    Z=              0.0000  Tot=              6.5460
 Quadrupole moment (field-independent basis, Debye-Ang):
   XX=            -57.0151   YY=           -104.9055   ZZ=           -111.5572
   XY=             16.7179   XZ=              0.0001   YZ=              0.0000
 Traceless Quadrupole moment (field-independent basis, Debye-Ang):
   XX=             34.1441   YY=            -13.7462   ZZ=            -20.3979
   XY=             16.7179   XZ=              0.0001   YZ=              0.0000
 Octapole moment (field-independent basis, Debye-Ang**2):
  XXX=            -82.0975  YYY=              9.0393  ZZZ=             -0.0001  XYY=            -55.2248
  XXY=             37.4489  XXZ=              0.0007  XZZ=             -1.8399  YZZ=              3.5458
  YYZ=              0.0000  XYZ=              0.0000
 Hexadecapole moment (field-independent basis, Debye-Ang**3):
 XXXX=          -4332.2962 YYYY=          -1324.0255 ZZZZ=            -96.9171 XXXY=             85.3553
 XXXZ=              0.0007 YYYX=            172.1146 YYYZ=              0.0001 ZZZX=             -0.0022
 ZZZY=             -0.0000 XXYY=          -1265.7376 XXZZ=          -1188.3197 YYZZ=           -277.8575
 XXYZ=              0.0004 YYXZ=             -0.0005 ZZXY=            -15.8905
 N-N= 1.369196398254D+03 E-N=-4.922674012184D+03  KE= 9.294770213515D+02
 No NMR shielding tensors so no spin-rotation constants.
 Leave Link  601 at Sun Oct 29 08:37:15 2023, MaxMem=   805306368 cpu:               0.0 elap:               0.0
 (Enter /opt/gaussian/g16/l9999.exe)
 Unable to Open any file for archive entry.
 1\1\GINC-KOOPA\FOpt\RBLYP\4-21G\C9H10N8O2\HWANG\29-Oct-2023\0\\#P blyp
 /4-21G EmpiricalDispersion(GD3) scf(qc) opt(tight,maxcycle=100,ModRedu
 ndant)\\Gaussian input prepared by ASE\\0,1\C,5.0393532754,-0.86051471
 13,0.0000070932\N,3.9489231123,-1.6356456255,0.0000010659\C,2.86229032
 28,-0.7225884467,0.0000022888\C,3.3255600222,0.6180542667,0.0000034075
 \N,4.7181194945,0.5224528821,0.0000108473\H,5.3570222308,1.3194198111,
 0.0000159098\N,2.5989570452,1.7733065212,0.0000027107\C,1.2610412236,1
 .5439340675,-0.0000006977\N,0.7041037324,0.2629927558,-0.0000021972\C,
 1.4470541809,-0.9655884337,-0.0000003553\O,0.84044607,-2.0868873569,-0
 .0000038412\N,0.4027701109,2.6016948456,-0.0000016908\H,6.0661711717,-
 1.2073531596,0.0000095941\H,-0.3436981319,0.1597204365,-0.0000046778\H
 ,0.8262574205,3.5300422411,0.0000000451\H,-0.6286544738,2.4975873256,-
 0.0000038124\C,-4.2071954626,-1.4819160286,0.0000011413\C,-4.980763036
 5,-0.3522598178,0.0000019434\N,-4.3939158458,0.8965968122,0.0000005172
 \C,-2.9581090049,1.0767618312,-0.0000017397\O,-2.5060727798,2.25896553
 15,-0.0000029141\N,-2.1910469371,-0.0713570791,-0.0000024153\C,-2.7611
 010926,-1.3128889956,-0.0000011487\N,-1.9348497102,-2.3793626312,-0.00
 00024988\H,-4.9515162859,1.7557826309,0.0000010364\H,-4.6576471181,-2.
 4714203243,0.0000020978\H,-6.069895024,-0.3857491555,0.0000036186\H,-0
 .8833605588,-2.2531577441,-0.0000053064\H,-2.3192729512,-3.3264204491,
 -0.0000020217\\Version=ES64L-G16RevC.01\State=1-A\HF=-935.2916272\RMSD
 =8.806e-13\RMSF=8.479e-04\Dipole=-2.51427,0.557712,0.0000069\Quadrupol
 e=25.3130111,-10.1476697,-15.1653414,12.5322932,0.0000572,0.00001\PG=C
 01 [X(C9H10N8O2)]\\@
 The archive entry for this job was punched.


 BLESSED ARE THOSE WHO NOUGHT EXPECT,
 FOR THEY SHALL NOT BE DISAPPOINTED..  WALCOT - ODE TO PITT
 Job cpu time:       0 days  0 hours 16 minutes  6.6 seconds.
 Elapsed time:       0 days  0 hours 16 minutes  6.0 seconds.
 File lengths (MBytes):  RWF=     21 Int=      0 D2E=      0 Chk=      4 Scr=      1
 Normal termination of Gaussian 16 at Sun Oct 29 08:37:15 2023.
